VIBRIO VULNIFICUS A-RIBOSWITCH in water t=   0.00000 step= 0
132253
   13C      O5'    1   2.854   6.516   5.934
   13C      H5T    2   2.940   6.475   5.943
   13C      C5'    3   2.786   6.457   5.826
   13C     H5'1    4   2.697   6.419   5.875
   13C     H5'2    5   2.841   6.378   5.774
   13C      C4'    6   2.739   6.561   5.726
   13C      H4'    7   2.695   6.509   5.640
   13C      O4'    8   2.634   6.642   5.783
   13C      C1'    9   2.649   6.778   5.732
   13C      H1'   10   2.558   6.817   5.686
   13C       N1   11   2.693   6.868   5.844
   13C       C6   12   2.736   6.815   5.967
   13C       H6   13   2.748   6.707   5.973
   13C       C5   14   2.752   6.890   6.078
   13C       H5   15   2.794   6.851   6.169
   13C       C4   16   2.724   7.026   6.063
   13C       N4   17   2.713   7.101   6.172
   13C      H41   18   2.703   7.066   6.266
   13C      H42   19   2.707   7.200   6.152
   13C       N3   20   2.696   7.082   5.950
   13C       C2   21   2.678   7.002   5.843
   13C       O2   22   2.666   7.062   5.735
   13C      C3'   23   2.843   6.658   5.666
   13C      H3'   24   2.919   6.673   5.742
   13C      C2'   25   2.763   6.786   5.635
   13C     H2'1   26   2.826   6.874   5.645
   13C      O2'   27   2.708   6.789   5.494
   13C     HO'2   28   2.709   6.699   5.461
   13C      O3'   29   2.889   6.596   5.546
   14G        P   30   3.038   6.625   5.497
   14G      O1P   31   3.054   6.578   5.353
   14G      O2P   32   3.127   6.575   5.603
   14G      O5'   33   3.064   6.786   5.490
   14G      C5'   34   3.015   6.869   5.388
   14G     H5'1   35   2.908   6.858   5.373
   14G     H5'2   36   3.070   6.855   5.295
   14G      C4'   37   3.038   7.014   5.434
   14G      H4'   38   3.019   7.074   5.345
   14G      O4'   39   2.948   7.059   5.530
   14G      C1'   40   3.001   7.179   5.584
   14G      H1'   41   2.933   7.258   5.553
   14G       N9   42   3.005   7.163   5.732
   14G       C8   43   3.020   7.052   5.805
   14G       H8   44   3.029   6.954   5.761
   14G       N7   45   3.009   7.077   5.935
   14G       C5   46   2.996   7.215   5.944
   14G       C6   47   2.992   7.303   6.056
   14G       O6   48   3.001   7.280   6.179
   14G       N1   49   2.983   7.437   6.023
   14G       H1   50   2.997   7.502   6.098
   14G       C2   51   2.996   7.480   5.894
   14G       N2   52   3.009   7.607   5.874
   14G      H21   53   3.015   7.671   5.952
   14G      H22   54   3.031   7.645   5.783
   14G       N3   55   2.997   7.407   5.789
   14G       C4   56   2.997   7.271   5.817
   14G      C3'   57   3.179   7.063   5.475
   14G      H3'   58   3.223   6.994   5.547
   14G      C2'   59   3.145   7.204   5.530
   14G     H2'1   60   3.210   7.230   5.613
   14G      O2'   61   3.142   7.299   5.429
   14G     HO'2   62   3.227   7.327   5.394
   14G      O3'   63   3.255   7.057   5.355
   15C        P   64   3.416   7.040   5.343
   15C      O1P   65   3.442   7.003   5.204
   15C      O2P   66   3.460   6.950   5.450
   15C      O5'   67   3.480   7.180   5.373
   15C      C5'   68   3.491   7.292   5.289
   15C     H5'1   69   3.398   7.305   5.233
   15C     H5'2   70   3.565   7.273   5.211
   15C      C4'   71   3.510   7.416   5.371
   15C      H4'   72   3.499   7.499   5.301
   15C      O4'   73   3.399   7.430   5.456
   15C      C1'   74   3.445   7.516   5.564
   15C      H1'   75   3.378   7.601   5.559
   15C       N1   76   3.423   7.438   5.691
   15C       C6   77   3.456   7.305   5.699
   15C       H6   78   3.502   7.252   5.616
   15C       C5   79   3.426   7.234   5.812
   15C       H5   80   3.448   7.128   5.821
   15C       C4   81   3.361   7.311   5.913
   15C       N4   82   3.351   7.256   6.033
   15C      H41   83   3.374   7.159   6.053
   15C      H42   84   3.333   7.316   6.112
   15C       N3   85   3.325   7.440   5.906
   15C       C2   86   3.363   7.508   5.798
   15C       O2   87   3.335   7.626   5.791
   15C      C3'   88   3.643   7.435   5.449
   15C      H3'   89   3.664   7.343   5.504
   15C      C2'   90   3.593   7.549   5.550
   15C     H2'1   91   3.640   7.541   5.648
   15C      O2'   92   3.613   7.679   5.486
   15C     HO'2   93   3.707   7.683   5.464
   15C      O3'   94   3.744   7.494   5.370
   16U        P   95   3.894   7.505   5.422
   16U      O1P   96   3.964   7.578   5.318
   16U      O2P   97   3.931   7.367   5.449
   16U      O5'   98   3.896   7.600   5.551
   16U      C5'   99   3.917   7.740   5.541
   16U     H5'1  100   3.844   7.782   5.472
   16U     H5'2  101   4.016   7.773   5.510
   16U      C4'  102   3.892   7.802   5.680
   16U      H4'  103   3.891   7.910   5.673
   16U      O4'  104   3.772   7.761   5.743
   16U      C1'  105   3.786   7.779   5.884
   16U      H1'  106   3.717   7.857   5.915
   16U       N1  107   3.761   7.649   5.964
   16U       C6  108   3.767   7.527   5.901
   16U       H6  109   3.801   7.531   5.798
   16U       C5  110   3.723   7.416   5.960
   16U       H5  111   3.722   7.324   5.903
   16U       C4  112   3.673   7.414   6.097
   16U       O4  113   3.637   7.319   6.164
   16U       N3  114   3.671   7.535   6.158
   16U       H3  115   3.642   7.532   6.254
   16U       C2  116   3.709   7.654   6.094
   16U       O2  117   3.697   7.762   6.156
   16U      C3'  118   3.998   7.776   5.788
   16U      H3'  119   4.013   7.668   5.794
   16U      C2'  120   3.925   7.829   5.913
   16U     H2'1  121   3.964   7.787   6.005
   16U      O2'  122   3.941   7.973   5.902
   16U     HO'2  123   4.034   7.993   5.890
   16U      O3'  124   4.122   7.848   5.758
   17U        P  125   4.249   7.785   5.834
   17U      O1P  126   4.360   7.879   5.813
   17U      O2P  127   4.256   7.641   5.795
   17U      O5'  128   4.213   7.797   5.986
   17U      C5'  129   4.248   7.905   6.072
   17U     H5'1  130   4.197   7.991   6.029
   17U     H5'2  131   4.353   7.934   6.071
   17U      C4'  132   4.214   7.893   6.218
   17U      H4'  133   4.227   7.988   6.268
   17U      O4'  134   4.087   7.832   6.233
   17U      C1'  135   4.079   7.751   6.349
   17U      H1'  136   4.026   7.805   6.427
   17U       N1  137   4.027   7.614   6.326
   17U       C6  138   4.044   7.558   6.204
   17U       H6  139   4.093   7.616   6.127
   17U       C5  140   4.004   7.428   6.191
   17U       H5  141   4.011   7.377   6.096
   17U       C4  142   3.942   7.352   6.298
   17U       O4  143   3.896   7.243   6.294
   17U       N3  144   3.941   7.419   6.418
   17U       H3  145   3.902   7.367   6.495
   17U       C2  146   3.977   7.550   6.436
   17U       O2  147   3.974   7.603   6.545
   17U      C3'  148   4.301   7.792   6.289
   17U      H3'  149   4.310   7.705   6.224
   17U      C2'  150   4.218   7.766   6.411
   17U     H2'1  151   4.252   7.675   6.460
   17U      O2'  152   4.203   7.874   6.506
   17U     HO'2  153   4.279   7.895   6.560
   17U      O3'  154   4.426   7.851   6.319
   18C        P  155   4.546   7.747   6.336
   18C      O1P  156   4.670   7.822   6.361
   18C      O2P  157   4.542   7.666   6.217
   18C      O5'  158   4.515   7.655   6.465
   18C      C5'  159   4.540   7.706   6.590
   18C     H5'1  160   4.485   7.799   6.601
   18C     H5'2  161   4.648   7.719   6.601
   18C      C4'  162   4.489   7.604   6.692
   18C      H4'  163   4.492   7.657   6.787
   18C      O4'  164   4.353   7.557   6.672
   18C      C1'  165   4.333   7.435   6.743
   18C      H1'  166   4.269   7.467   6.825
   18C       N1  167   4.258   7.339   6.657
   18C       C6  168   4.278   7.345   6.521
   18C       H6  169   4.319   7.433   6.474
   18C       C5  170   4.242   7.238   6.451
   18C       H5  171   4.260   7.249   6.345
   18C       C4  172   4.179   7.127   6.512
   18C       N4  173   4.121   7.033   6.441
   18C      H41  174   4.108   7.060   6.344
   18C      H42  175   4.057   6.966   6.482
   18C       N3  176   4.159   7.125   6.643
   18C       C2  177   4.194   7.231   6.720
   18C       O2  178   4.168   7.232   6.843
   18C      C3'  179   4.566   7.475   6.706
   18C      H3'  180   4.573   7.428   6.607
   18C      C2'  181   4.471   7.389   6.795
   18C     H2'1  182   4.490   7.282   6.780
   18C      O2'  183   4.485   7.414   6.936
   18C     HO'2  184   4.560   7.362   6.966
   18C      O3'  185   4.701   7.495   6.754
   19A        P  186   4.806   7.381   6.779
   19A      O1P  187   4.933   7.449   6.797
   19A      O2P  188   4.801   7.286   6.669
   19A      O5'  189   4.766   7.301   6.907
   19A      C5'  190   4.789   7.354   7.039
   19A     H5'1  191   4.729   7.443   7.056
   19A     H5'2  192   4.897   7.353   7.057
   19A      C4'  193   4.719   7.257   7.134
   19A      H4'  194   4.727   7.297   7.235
   19A      O4'  195   4.583   7.232   7.092
   19A      C1'  196   4.560   7.091   7.097
   19A      H1'  197   4.463   7.075   7.144
   19A       N9  198   4.534   7.033   6.966
   19A       C8  199   4.620   7.047   6.851
   19A       H8  200   4.716   7.094   6.835
   19A       N7  201   4.551   6.996   6.750
   19A       C5  202   4.434   6.934   6.798
   19A       C6  203   4.342   6.853   6.741
   19A       N6  204   4.329   6.799   6.620
   19A      H61  205   4.399   6.817   6.549
   19A      H62  206   4.261   6.725   6.610
   19A       N1  207   4.251   6.794   6.823
   19A       C2  208   4.250   6.830   6.950
   19A       H2  209   4.168   6.791   7.008
   19A       N3  210   4.327   6.913   7.017
   19A       C4  211   4.423   6.960   6.932
   19A      C3'  212   4.791   7.121   7.139
   19A      H3'  213   4.838   7.100   7.043
   19A      C2'  214   4.679   7.026   7.172
   19A     H2'1  215   4.693   6.921   7.143
   19A      O2'  216   4.638   7.022   7.311
   19A     HO'2  217   4.721   7.021   7.359
   19A      O3'  218   4.883   7.115   7.252
   20U        P  219   5.000   7.008   7.255
   20U      O1P  220   5.065   7.039   7.381
   20U      O2P  221   5.075   7.021   7.132
   20U      O5'  222   4.933   6.861   7.258
   20U      C5'  223   4.884   6.806   7.387
   20U     H5'1  224   4.801   6.867   7.422
   20U     H5'2  225   4.978   6.808   7.442
   20U      C4'  226   4.851   6.659   7.368
   20U      H4'  227   4.831   6.615   7.465
   20U      O4'  228   4.730   6.657   7.288
   20U      C1'  229   4.729   6.535   7.215
   20U      H1'  230   4.649   6.473   7.255
   20U       N1  231   4.700   6.559   7.073
   20U       C6  232   4.760   6.662   7.002
   20U       H6  233   4.829   6.727   7.054
   20U       C5  234   4.712   6.687   6.873
   20U       H5  235   4.752   6.771   6.818
   20U       C4  236   4.606   6.611   6.806
   20U       O4  237   4.567   6.620   6.690
   20U       N3  238   4.561   6.506   6.882
   20U       H3  239   4.487   6.448   6.845
   20U       C2  240   4.604   6.476   7.013
   20U       O2  241   4.549   6.376   7.062
   20U      C3'  242   4.952   6.577   7.292
   20U      H3'  243   5.004   6.631   7.213
   20U      C2'  244   4.871   6.470   7.231
   20U     H2'1  245   4.915   6.430   7.139
   20U      O2'  246   4.839   6.363   7.315
   20U     HO'2  247   4.902   6.292   7.302
   20U      O3'  248   5.066   6.536   7.373
   21A        P  249   5.200   6.479   7.319
   21A      O1P  250   5.283   6.473   7.439
   21A      O2P  251   5.246   6.562   7.206
   21A      O5'  252   5.177   6.333   7.270
   21A      C5'  253   5.160   6.220   7.355
   21A     H5'1  254   5.089   6.245   7.433
   21A     H5'2  255   5.253   6.183   7.398
   21A      C4'  256   5.102   6.094   7.283
   21A      H4'  257   5.080   6.020   7.360
   21A      O4'  258   4.984   6.132   7.219
   21A      C1'  259   4.967   6.060   7.095
   21A      H1'  260   4.878   5.998   7.107
   21A       N9  261   4.939   6.153   6.990
   21A       C8  262   5.012   6.261   6.952
   21A       H8  263   5.110   6.281   6.992
   21A       N7  264   4.947   6.330   6.857
   21A       C5  265   4.829   6.249   6.831
   21A       C6  266   4.727   6.255   6.736
   21A       N6  267   4.720   6.337   6.634
   21A      H61  268   4.798   6.400   6.620
   21A      H62  269   4.645   6.328   6.567
   21A       N1  270   4.634   6.158   6.729
   21A       C2  271   4.630   6.072   6.831
   21A       H2  272   4.549   6.001   6.839
   21A       N3  273   4.715   6.059   6.932
   21A       C4  274   4.820   6.146   6.918
   21A      C3'  275   5.186   6.026   7.175
   21A      H3'  276   5.237   6.103   7.117
   21A      C2'  277   5.082   5.963   7.071
   21A     H2'1  278   5.117   5.977   6.968
   21A      O2'  279   5.039   5.828   7.100
   21A     HO'2  280   4.978   5.810   7.028
   21A      O3'  281   5.272   5.927   7.232
   22U        P  282   5.425   5.965   7.238
   22U      O1P  283   5.486   5.870   7.328
   22U      O2P  284   5.441   6.114   7.258
   22U      O5'  285   5.459   5.929   7.088
   22U      C5'  286   5.463   5.794   7.052
   22U     H5'1  287   5.363   5.754   7.065
   22U     H5'2  288   5.534   5.734   7.109
   22U      C4'  289   5.505   5.782   6.906
   22U      H4'  290   5.603   5.827   6.890
   22U      O4'  291   5.514   5.647   6.871
   22U      C1'  292   5.415   5.614   6.774
   22U      H1'  293   5.477   5.615   6.684
   22U       N1  294   5.352   5.484   6.799
   22U       C6  295   5.293   5.452   6.920
   22U       H6  296   5.304   5.524   7.000
   22U       C5  297   5.203   5.347   6.932
   22U       H5  298   5.145   5.325   7.020
   22U       C4  299   5.182   5.254   6.817
   22U       O4  300   5.091   5.170   6.804
   22U       N3  301   5.253   5.285   6.711
   22U       H3  302   5.252   5.215   6.638
   22U       C2  303   5.336   5.395   6.693
   22U       O2  304   5.376   5.416   6.584
   22U      C3'  305   5.402   5.852   6.813
   22U      H3'  306   5.336   5.924   6.862
   22U      C2'  307   5.313   5.728   6.773
   22U     H2'1  308   5.241   5.707   6.852
   22U      O2'  309   5.246   5.735   6.652
   22U     HO'2  310   5.202   5.819   6.640
   22U      O3'  311   5.460   5.913   6.691
   23A        P  312   5.545   6.046   6.692
   23A      O1P  313   5.513   6.139   6.803
   23A      O2P  314   5.542   6.102   6.555
   23A      O5'  315   5.691   5.983   6.719
   23A      C5'  316   5.751   5.901   6.621
   23A     H5'1  317   5.769   5.967   6.536
   23A     H5'2  318   5.693   5.814   6.589
   23A      C4'  319   5.881   5.841   6.665
   23A      H4'  320   5.962   5.913   6.673
   23A      O4'  321   5.850   5.775   6.784
   23A      C1'  322   5.953   5.688   6.818
   23A      H1'  323   6.033   5.729   6.879
   23A       N9  324   5.893   5.576   6.889
   23A       C8  325   5.906   5.542   7.022
   23A       H8  326   5.972   5.594   7.090
   23A       N7  327   5.823   5.448   7.061
   23A       C5  328   5.749   5.420   6.944
   23A       C6  329   5.645   5.331   6.906
   23A       N6  330   5.563   5.282   7.000
   23A      H61  331   5.599   5.273   7.094
   23A      H62  332   5.479   5.245   6.958
   23A       N1  333   5.616   5.314   6.781
   23A       C2  334   5.674   5.394   6.690
   23A       H2  335   5.645   5.368   6.589
   23A       N3  336   5.769   5.482   6.706
   23A       C4  337   5.800   5.488   6.836
   23A      C3'  338   5.931   5.726   6.577
   23A      H3'  339   5.846   5.665   6.545
   23A      C2'  340   6.021   5.653   6.684
   23A     H2'1  341   6.009   5.550   6.648
   23A      O2'  342   6.157   5.698   6.682
   23A     HO'2  343   6.160   5.762   6.611
   23A      O3'  344   6.001   5.769   6.459
   24A        P  345   5.941   5.785   6.321
   24A      O1P  346   6.027   5.876   6.244
   24A      O2P  347   5.793   5.810   6.323
   24A      O5'  348   5.960   5.650   6.251
   24A      C5'  349   5.921   5.528   6.305
   24A     H5'1  350   5.816   5.546   6.329
   24A     H5'2  351   5.990   5.501   6.385
   24A      C4'  352   5.930   5.413   6.205
   24A      H4'  353   5.886   5.321   6.243
   24A      O4'  354   5.856   5.456   6.088
   24A      C1'  355   5.937   5.424   5.978
   24A      H1'  356   5.927   5.317   5.961
   24A       N9  357   5.887   5.499   5.859
   24A       C8  358   5.934   5.621   5.800
   24A       H8  359   6.022   5.675   5.829
   24A       N7  360   5.860   5.651   5.697
   24A       C5  361   5.776   5.544   5.676
   24A       C6  362   5.672   5.510   5.587
   24A       N6  363   5.654   5.576   5.468
   24A      H61  364   5.693   5.669   5.461
   24A      H62  365   5.609   5.528   5.391
   24A       N1  366   5.598   5.396   5.594
   24A       C2  367   5.627   5.314   5.695
   24A       H2  368   5.572   5.222   5.708
   24A       N3  369   5.725   5.335   5.784
   24A       C4  370   5.792   5.452   5.778
   24A      C3'  371   6.074   5.392   6.164
   24A      H3'  372   6.146   5.438   6.231
   24A      C2'  373   6.072   5.457   6.025
   24A     H2'1  374   6.086   5.565   6.026
   24A      O2'  375   6.175   5.402   5.953
   24A     HO'2  376   6.203   5.326   6.005
   24A      O3'  377   6.098   5.259   6.146
   25U        P  378   6.217   5.193   6.235
   25U      O1P  379   6.340   5.261   6.199
   25U      O2P  380   6.204   5.046   6.222
   25U      O5'  381   6.187   5.225   6.386
   25U      C5'  382   6.253   5.323   6.455
   25U     H5'1  383   6.232   5.424   6.420
   25U     H5'2  384   6.359   5.299   6.454
   25U      C4'  385   6.215   5.320   6.609
   25U      H4'  386   6.238   5.415   6.657
   25U      O4'  387   6.074   5.304   6.622
   25U      C1'  388   6.033   5.247   6.748
   25U      H1'  389   5.999   5.318   6.823
   25U       N1  390   5.927   5.133   6.722
   25U       C6  391   5.896   5.089   6.588
   25U       H6  392   5.953   5.132   6.507
   25U       C5  393   5.800   4.998   6.575
   25U       H5  394   5.778   4.952   6.479
   25U       C4  395   5.736   4.934   6.690
   25U       O4  396   5.668   4.833   6.683
   25U       N3  397   5.776   4.983   6.812
   25U       H3  398   5.735   4.944   6.895
   25U       C2  399   5.859   5.089   6.830
   25U       O2  400   5.881   5.136   6.936
   25U      C3'  401   6.258   5.202   6.685
   25U      H3'  402   6.224   5.127   6.614
   25U      C2'  403   6.171   5.202   6.808
   25U     H2'1  404   6.165   5.101   6.850
   25U      O2'  405   6.206   5.301   6.906
   25U     HO'2  406   6.301   5.315   6.907
   25U      O3'  407   6.396   5.204   6.696
   26C        P  408   6.485   5.075   6.695
   26C      O1P  409   6.623   5.129   6.687
   26C      O2P  410   6.436   4.980   6.598
   26C      O5'  411   6.451   5.019   6.842
   26C      C5'  412   6.499   5.073   6.962
   26C     H5'1  413   6.479   5.178   6.943
   26C     H5'2  414   6.604   5.043   6.961
   26C      C4'  415   6.433   5.015   7.088
   26C      H4'  416   6.462   5.068   7.178
   26C      O4'  417   6.292   5.014   7.076
   26C      C1'  418   6.242   4.900   7.138
   26C      H1'  419   6.188   4.938   7.225
   26C       N1  420   6.157   4.825   7.044
   26C       C6  421   6.176   4.833   6.910
   26C       H6  422   6.263   4.889   6.879
   26C       C5  423   6.096   4.779   6.821
   26C       H5  424   6.105   4.794   6.714
   26C       C4  425   5.984   4.706   6.873
   26C       N4  426   5.896   4.657   6.790
   26C      H41  427   5.908   4.688   6.694
   26C      H42  428   5.805   4.629   6.824
   26C       N3  429   5.958   4.691   7.004
   26C       C2  430   6.041   4.756   7.088
   26C       O2  431   6.020   4.756   7.209
   26C      C3'  432   6.472   4.872   7.101
   26C      H3'  433   6.466   4.833   6.999
   26C      C2'  434   6.358   4.821   7.191
   26C     H2'1  435   6.341   4.715   7.172
   26C      O2'  436   6.386   4.856   7.323
   26C     HO'2  437   6.457   4.920   7.319
   26C      O3'  438   6.606   4.846   7.148
   27C        P  439   6.678   4.707   7.107
   27C      O1P  440   6.810   4.709   7.170
   27C      O2P  441   6.659   4.680   6.958
   27C      O5'  442   6.601   4.586   7.175
   27C      C5'  443   6.597   4.569   7.321
   27C     H5'1  444   6.562   4.663   7.362
   27C     H5'2  445   6.699   4.567   7.358
   27C      C4'  446   6.520   4.455   7.384
   27C      H4'  447   6.543   4.462   7.490
   27C      O4'  448   6.382   4.473   7.361
   27C      C1'  449   6.328   4.344   7.342
   27C      H1'  450   6.256   4.312   7.417
   27C       N1  451   6.258   4.339   7.213
   27C       C6  452   6.302   4.420   7.112
   27C       H6  453   6.386   4.486   7.126
   27C       C5  454   6.239   4.418   6.989
   27C       H5  455   6.265   4.480   6.904
   27C       C4  456   6.125   4.330   6.974
   27C       N4  457   6.064   4.323   6.859
   27C      H41  458   6.092   4.385   6.784
   27C      H42  459   5.982   4.265   6.850
   27C       N3  460   6.085   4.248   7.074
   27C       C2  461   6.155   4.248   7.188
   27C       O2  462   6.125   4.161   7.273
   27C      C3'  463   6.570   4.323   7.332
   27C      H3'  464   6.588   4.327   7.224
   27C      C2'  465   6.436   4.248   7.359
   27C     H2'1  466   6.433   4.163   7.291
   27C      O2'  467   6.432   4.212   7.502
   27C     HO'2  468   6.523   4.224   7.532
   27C      O3'  469   6.668   4.256   7.407
   28U        P  470   6.746   4.135   7.330
   28U      O1P  471   6.839   4.079   7.429
   28U      O2P  472   6.802   4.188   7.206
   28U      O5'  473   6.652   4.017   7.281
   28U      C5'  474   6.600   3.918   7.376
   28U     H5'1  475   6.559   3.968   7.463
   28U     H5'2  476   6.677   3.851   7.415
   28U      C4'  477   6.488   3.839   7.319
   28U      H4'  478   6.448   3.770   7.393
   28U      O4'  479   6.386   3.925   7.271
   28U      C1'  480   6.342   3.871   7.146
   28U      H1'  481   6.244   3.831   7.171
   28U       N1  482   6.330   3.958   7.031
   28U       C6  483   6.423   4.048   6.995
   28U       H6  484   6.506   4.065   7.062
   28U       C5  485   6.417   4.112   6.873
   28U       H5  486   6.491   4.185   6.843
   28U       C4  487   6.313   4.084   6.774
   28U       O4  488   6.296   4.144   6.669
   28U       N3  489   6.235   3.979   6.813
   28U       H3  490   6.153   3.950   6.762
   28U       C2  491   6.226   3.924   6.941
   28U       O2  492   6.137   3.848   6.973
   28U      C3'  493   6.546   3.756   7.206
   28U      H3'  494   6.625   3.811   7.155
   28U      C2'  495   6.426   3.747   7.108
   28U     H2'1  496   6.466   3.756   7.007
   28U      O2'  497   6.349   3.630   7.125
   28U     HO'2  498   6.397   3.569   7.181
   28U      O3'  499   6.603   3.634   7.246
   29A        P  500   6.696   3.542   7.155
   29A      O1P  501   6.790   3.472   7.251
   29A      O2P  502   6.757   3.634   7.058
   29A      O5'  503   6.603   3.441   7.075
   29A      C5'  504   6.566   3.317   7.128
   29A     H5'1  505   6.510   3.319   7.221
   29A     H5'2  506   6.653   3.260   7.160
   29A      C4'  507   6.480   3.252   7.023
   29A      H4'  508   6.439   3.161   7.068
   29A      O4'  509   6.385   3.345   6.984
   29A      C1'  510   6.348   3.325   6.844
   29A      H1'  511   6.242   3.307   6.828
   29A       N9  512   6.375   3.449   6.767
   29A       C8  513   6.448   3.566   6.796
   29A       H8  514   6.503   3.563   6.889
   29A       N7  515   6.452   3.660   6.705
   29A       C5  516   6.370   3.600   6.611
   29A       C6  517   6.334   3.637   6.477
   29A       N6  518   6.360   3.751   6.418
   29A      H61  519   6.416   3.825   6.458
   29A      H62  520   6.309   3.777   6.334
   29A       N1  521   6.245   3.565   6.414
   29A       C2  522   6.198   3.449   6.456
   29A       H2  523   6.134   3.391   6.390
   29A       N3  524   6.240   3.394   6.575
   29A       C4  525   6.321   3.476   6.647
   29A      C3'  526   6.554   3.208   6.891
   29A      H3'  527   6.619   3.292   6.868
   29A      C2'  528   6.430   3.202   6.802
   29A     H2'1  529   6.451   3.212   6.695
   29A      O2'  530   6.343   3.095   6.838
   29A     HO'2  531   6.404   3.036   6.883
   29A      O3'  532   6.626   3.089   6.908
   30A        P  533   6.734   3.047   6.803
   30A      O1P  534   6.797   2.926   6.851
   30A      O2P  535   6.811   3.167   6.758
   30A      O5'  536   6.660   3.009   6.670
   30A      C5'  537   6.582   2.889   6.658
   30A     H5'1  538   6.521   2.872   6.746
   30A     H5'2  539   6.659   2.812   6.655
   30A      C4'  540   6.504   2.886   6.525
   30A      H4'  541   6.433   2.804   6.517
   30A      O4'  542   6.417   2.997   6.528
   30A      C1'  543   6.391   3.030   6.398
   30A      H1'  544   6.285   3.027   6.375
   30A       N9  545   6.445   3.166   6.379
   30A       C8  546   6.545   3.231   6.445
   30A       H8  547   6.602   3.191   6.527
   30A       N7  548   6.577   3.344   6.382
   30A       C5  549   6.490   3.352   6.274
   30A       C6  550   6.462   3.443   6.173
   30A       N6  551   6.527   3.552   6.149
   30A      H61  552   6.606   3.584   6.203
   30A      H62  553   6.492   3.607   6.072
   30A       N1  554   6.357   3.430   6.087
   30A       C2  555   6.284   3.323   6.113
   30A       H2  556   6.199   3.317   6.047
   30A       N3  557   6.297   3.223   6.197
   30A       C4  558   6.404   3.249   6.276
   30A      C3'  559   6.593   2.891   6.405
   30A      H3'  560   6.659   2.977   6.416
   30A      C2'  561   6.482   2.939   6.314
   30A     H2'1  562   6.534   2.990   6.233
   30A      O2'  563   6.405   2.832   6.266
   30A     HO'2  564   6.336   2.868   6.209
   30A      O3'  565   6.653   2.772   6.357
   31U        P  566   6.775   2.772   6.248
   31U      O1P  567   6.800   2.634   6.199
   31U      O2P  568   6.884   2.842   6.317
   31U      O5'  569   6.739   2.862   6.119
   31U      C5'  570   6.646   2.797   6.032
   31U     H5'1  571   6.565   2.746   6.084
   31U     H5'2  572   6.698   2.722   5.972
   31U      C4'  573   6.580   2.895   5.936
   31U      H4'  574   6.488   2.849   5.901
   31U      O4'  575   6.546   3.016   5.995
   31U      C1'  576   6.551   3.116   5.894
   31U      H1'  577   6.455   3.168   5.889
   31U       N1  578   6.647   3.230   5.940
   31U       C6  579   6.735   3.216   6.047
   31U       H6  580   6.728   3.126   6.107
   31U       C5  581   6.834   3.309   6.068
   31U       H5  582   6.922   3.296   6.129
   31U       C4  583   6.845   3.423   5.982
   31U       O4  584   6.933   3.509   5.990
   31U       N3  585   6.752   3.435   5.889
   31U       H3  586   6.750   3.527   5.848
   31U       C2  587   6.660   3.338   5.855
   31U       O2  588   6.595   3.352   5.749
   31U      C3'  589   6.663   2.934   5.816
   31U      H3'  590   6.765   2.961   5.844
   31U      C2'  591   6.589   3.056   5.755
   31U     H2'1  592   6.649   3.124   5.694
   31U      O2'  593   6.471   3.021   5.687
   31U     HO'2  594   6.470   2.925   5.690
   31U      O3'  595   6.672   2.822   5.734
   32G        P  596   6.809   2.784   5.674
   32G      O1P  597   6.788   2.665   5.587
   32G      O2P  598   6.910   2.786   5.781
   32G      O5'  599   6.841   2.904   5.577
   32G      C5'  600   6.772   2.915   5.445
   32G     H5'1  601   6.668   2.887   5.457
   32G     H5'2  602   6.815   2.839   5.380
   32G      C4'  603   6.786   3.056   5.388
   32G      H4'  604   6.706   3.066   5.315
   32G      O4'  605   6.779   3.156   5.492
   32G      C1'  606   6.846   3.272   5.454
   32G      H1'  607   6.792   3.366   5.450
   32G       N9  608   6.945   3.301   5.555
   32G       C8  609   6.966   3.231   5.674
   32G       H8  610   6.938   3.128   5.692
   32G       N7  611   7.040   3.298   5.760
   32G       C5  612   7.070   3.413   5.691
   32G       C6  613   7.151   3.524   5.727
   32G       O6  614   7.219   3.547   5.830
   32G       N1  615   7.164   3.621   5.632
   32G       H1  616   7.203   3.710   5.658
   32G       C2  617   7.102   3.616   5.511
   32G       N2  618   7.113   3.719   5.432
   32G      H21  619   7.184   3.786   5.458
   32G      H22  620   7.072   3.707   5.340
   32G       N3  621   7.018   3.520   5.471
   32G       C4  622   7.010   3.419   5.568
   32G      C3'  623   6.921   3.083   5.326
   32G      H3'  624   6.997   3.064   5.402
   32G      C2'  625   6.914   3.231   5.319
   32G     H2'1  626   7.016   3.269   5.310
   32G      O2'  627   6.821   3.289   5.220
   32G     HO'2  628   6.855   3.287   5.130
   32G      O3'  629   6.925   3.006   5.204
   33A        P  630   7.045   2.996   5.104
   33A      O1P  631   7.012   2.880   5.016
   33A      O2P  632   7.179   3.014   5.167
   33A      O5'  633   7.043   3.123   5.016
   33A      C5'  634   6.937   3.151   4.925
   33A     H5'1  635   6.845   3.146   4.983
   33A     H5'2  636   6.936   3.082   4.840
   33A      C4'  637   6.960   3.293   4.884
   33A      H4'  638   6.867   3.323   4.835
   33A      O4'  639   6.971   3.377   4.998
   33A      C1'  640   7.054   3.479   4.958
   33A      H1'  641   6.997   3.571   4.963
   33A       N9  642   7.182   3.467   5.041
   33A       C8  643   7.218   3.381   5.144
   33A       H8  644   7.169   3.285   5.158
   33A       N7  645   7.307   3.429   5.229
   33A       C5  646   7.352   3.541   5.158
   33A       C6  647   7.448   3.639   5.185
   33A       N6  648   7.514   3.653   5.297
   33A      H61  649   7.481   3.611   5.383
   33A      H62  650   7.579   3.730   5.294
   33A       N1  651   7.474   3.734   5.095
   33A       C2  652   7.397   3.747   4.985
   33A       H2  653   7.422   3.829   4.919
   33A       N3  654   7.299   3.659   4.947
   33A       C4  655   7.284   3.557   5.044
   33A      C3'  656   7.087   3.312   4.797
   33A      H3'  657   7.169   3.263   4.850
   33A      C2'  658   7.095   3.464   4.810
   33A     H2'1  659   7.200   3.491   4.797
   33A      O2'  660   6.996   3.533   4.732
   33A     HO'2  661   7.031   3.620   4.712
   33A      O3'  662   7.073   3.255   4.669
   34U        P  663   7.195   3.188   4.590
   34U      O1P  664   7.136   3.128   4.467
   34U      O2P  665   7.279   3.109   4.684
   34U      O5'  666   7.275   3.317   4.557
   34U      C5'  667   7.218   3.422   4.474
   34U     H5'1  668   7.126   3.448   4.526
   34U     H5'2  669   7.186   3.378   4.379
   34U      C4'  670   7.317   3.536   4.454
   34U      H4'  671   7.264   3.611   4.396
   34U      O4'  672   7.362   3.587   4.575
   34U      C1'  673   7.499   3.580   4.580
   34U      H1'  674   7.541   3.675   4.547
   34U       N1  675   7.534   3.539   4.715
   34U       C6  676   7.483   3.414   4.767
   34U       H6  677   7.422   3.344   4.712
   34U       C5  678   7.523   3.370   4.892
   34U       H5  679   7.477   3.287   4.944
   34U       C4  680   7.626   3.441   4.963
   34U       O4  681   7.672   3.413   5.077
   34U       N3  682   7.673   3.558   4.908
   34U       H3  683   7.725   3.619   4.969
   34U       C2  684   7.628   3.610   4.792
   34U       O2  685   7.665   3.723   4.763
   34U      C3'  686   7.441   3.491   4.373
   34U      H3'  687   7.417   3.397   4.323
   34U      C2'  688   7.543   3.467   4.485
   34U     H2'1  689   7.525   3.370   4.531
   34U      O2'  690   7.682   3.479   4.453
   34U     HO'2  691   7.692   3.531   4.373
   34U      O3'  692   7.488   3.587   4.283
   35A        P  693   7.452   3.592   4.133
   35A      O1P  694   7.324   3.524   4.102
   35A      O2P  695   7.573   3.543   4.074
   35A      O5'  696   7.440   3.750   4.093
   35A      C5'  697   7.315   3.826   4.101
   35A     H5'1  698   7.295   3.834   4.208
   35A     H5'2  699   7.231   3.786   4.044
   35A      C4'  700   7.334   3.964   4.037
   35A      H4'  701   7.234   4.006   4.032
   35A      O4'  702   7.408   4.041   4.133
   35A      C1'  703   7.529   4.090   4.070
   35A      H1'  704   7.536   4.195   4.044
   35A       N9  705   7.637   4.065   4.174
   35A       C8  706   7.648   3.962   4.268
   35A       H8  707   7.567   3.892   4.283
   35A       N7  708   7.743   3.974   4.351
   35A       C5  709   7.822   4.076   4.297
   35A       C6  710   7.954   4.128   4.319
   35A       N6  711   8.044   4.080   4.406
   35A      H61  712   8.015   4.011   4.474
   35A      H62  713   8.135   4.123   4.401
   35A       N1  714   7.998   4.230   4.245
   35A       C2  715   7.920   4.277   4.144
   35A       H2  716   7.951   4.366   4.091
   35A       N3  717   7.801   4.234   4.112
   35A       C4  718   7.756   4.135   4.191
   35A      C3'  719   7.406   3.959   3.901
   35A      H3'  720   7.410   3.863   3.850
   35A      C2'  721   7.550   3.999   3.950
   35A     H2'1  722   7.606   3.911   3.981
   35A      O2'  723   7.620   4.055   3.845
   35A     HO'2  724   7.606   4.001   3.767
   35A      O3'  725   7.349   4.053   3.819
   36U        P  726   7.258   4.008   3.701
   36U      O1P  727   7.327   3.905   3.623
   36U      O2P  728   7.230   4.137   3.634
   36U      O5'  729   7.129   3.951   3.767
   36U      C5'  730   7.012   4.023   3.791
   36U     H5'1  731   6.978   4.065   3.696
   36U     H5'2  732   7.036   4.104   3.860
   36U      C4'  733   6.895   3.950   3.858
   36U      H4'  734   6.827   4.028   3.891
   36U      O4'  735   6.829   3.858   3.772
   36U      C1'  736   6.880   3.725   3.804
   36U      H1'  737   6.799   3.654   3.820
   36U       N1  738   6.945   3.674   3.682
   36U       C6  739   6.983   3.757   3.579
   36U       H6  740   6.972   3.864   3.588
   36U       C5  741   7.037   3.698   3.463
   36U       H5  742   7.069   3.758   3.379
   36U       C4  743   7.063   3.558   3.451
   36U       O4  744   7.093   3.500   3.350
   36U       N3  745   7.034   3.488   3.568
   36U       H3  746   7.048   3.390   3.546
   36U       C2  747   6.969   3.534   3.679
   36U       O2  748   6.920   3.458   3.760
   36U      C3'  749   6.943   3.866   3.983
   36U      H3'  750   7.037   3.902   4.025
   36U      C2'  751   6.967   3.727   3.933
   36U     H2'1  752   7.072   3.720   3.905
   36U      O2'  753   6.939   3.618   4.025
   36U     HO'2  754   6.865   3.647   4.078
   36U      O3'  755   6.842   3.861   4.072
   37G        P  756   6.833   3.970   4.191
   37G      O1P  757   6.693   3.965   4.230
   37G      O2P  758   6.882   4.100   4.136
   37G      O5'  759   6.926   3.922   4.307
   37G      C5'  760   6.901   3.805   4.376
   37G     H5'1  761   6.909   3.716   4.313
   37G     H5'2  762   6.812   3.818   4.437
   37G      C4'  763   7.001   3.789   4.486
   37G      H4'  764   6.984   3.687   4.522
   37G      O4'  765   7.139   3.811   4.442
   37G      C1'  766   7.210   3.873   4.548
   37G      H1'  767   7.287   3.797   4.564
   37G       N9  768   7.262   4.005   4.505
   37G       C8  769   7.205   4.101   4.430
   37G       H8  770   7.115   4.089   4.372
   37G       N7  771   7.292   4.196   4.402
   37G       C5  772   7.403   4.169   4.477
   37G       C6  773   7.535   4.231   4.488
   37G       O6  774   7.574   4.331   4.433
   37G       N1  775   7.625   4.167   4.570
   37G       H1  776   7.715   4.210   4.585
   37G       C2  777   7.600   4.040   4.612
   37G       N2  778   7.691   3.986   4.687
   37G      H21  779   7.781   4.032   4.689
   37G      H22  780   7.671   3.892   4.720
   37G       N3  781   7.479   3.978   4.611
   37G       C4  782   7.390   4.048   4.541
   37G      C3'  783   6.979   3.887   4.601
   37G      H3'  784   6.948   3.988   4.574
   37G      C2'  785   7.115   3.891   4.664
   37G     H2'1  786   7.139   3.984   4.715
   37G      O2'  787   7.133   3.779   4.747
   37G     HO'2  788   7.207   3.796   4.805
   37G      O3'  789   6.877   3.831   4.685
   38G        P  790   6.819   3.922   4.798
   38G      O1P  791   6.725   3.832   4.865
   38G      O2P  792   6.766   4.042   4.735
   38G      O5'  793   6.934   3.963   4.899
   38G      C5'  794   6.969   3.883   5.008
   38G     H5'1  795   7.009   3.787   4.975
   38G     H5'2  796   6.878   3.862   5.064
   38G      C4'  797   7.070   3.950   5.102
   38G      H4'  798   7.093   3.885   5.186
   38G      O4'  799   7.185   3.965   5.030
   38G      C1'  800   7.238   4.095   5.057
   38G      H1'  801   7.342   4.094   5.089
   38G       N9  802   7.233   4.177   4.933
   38G       C8  803   7.137   4.207   4.838
   38G       H8  804   7.039   4.163   4.830
   38G       N7  805   7.181   4.294   4.744
   38G       C5  806   7.308   4.333   4.788
   38G       C6  807   7.401   4.432   4.732
   38G       O6  808   7.383   4.510   4.636
   38G       N1  809   7.523   4.436   4.796
   38G       H1  810   7.591   4.504   4.767
   38G       C2  811   7.548   4.366   4.908
   38G       N2  812   7.662   4.387   4.966
   38G      H21  813   7.728   4.453   4.928
   38G      H22  814   7.685   4.334   5.049
   38G       N3  815   7.460   4.275   4.965
   38G       C4  816   7.339   4.261   4.901
   38G      C3'  817   7.016   4.085   5.154
   38G      H3'  818   6.954   4.123   5.073
   38G      C2'  819   7.157   4.148   5.174
   38G     H2'1  820   7.161   4.256   5.162
   38G      O2'  821   7.212   4.117   5.307
   38G     HO'2  822   7.147   4.150   5.369
   38G      O3'  823   6.946   4.076   5.277
   39U        P  824   6.844   4.186   5.311
   39U      O1P  825   6.868   4.312   5.237
   39U      O2P  826   6.827   4.195   5.456
   39U      O5'  827   6.699   4.127   5.266
   39U      C5'  828   6.662   4.101   5.135
   39U     H5'1  829   6.742   4.048   5.083
   39U     H5'2  830   6.640   4.196   5.087
   39U      C4'  831   6.552   3.999   5.129
   39U      H4'  832   6.524   3.995   5.023
   39U      O4'  833   6.604   3.874   5.179
   39U      C1'  834   6.523   3.822   5.284
   39U      H1'  835   6.449   3.753   5.243
   39U       N1  836   6.611   3.772   5.396
   39U       C6  837   6.716   3.849   5.444
   39U       H6  838   6.724   3.949   5.404
   39U       C5  839   6.796   3.798   5.542
   39U       H5  840   6.876   3.858   5.583
   39U       C4  841   6.761   3.672   5.610
   39U       O4  842   6.819   3.629   5.711
   39U       N3  843   6.656   3.598   5.552
   39U       H3  844   6.618   3.513   5.592
   39U       C2  845   6.579   3.640   5.445
   39U       O2  846   6.498   3.565   5.395
   39U      C3'  847   6.422   4.020   5.207
   39U      H3'  848   6.414   4.128   5.213
   39U      C2'  849   6.450   3.954   5.338
   39U     H2'1  850   6.512   4.022   5.395
   39U      O2'  851   6.340   3.910   5.408
   39U     HO'2  852   6.268   3.882   5.351
   39U      O3'  853   6.304   3.985   5.137
   40U        P  854   6.155   4.045   5.179
   40U      O1P  855   6.066   4.041   5.060
   40U      O2P  856   6.169   4.172   5.251
   40U      O5'  857   6.103   3.932   5.287
   40U      C5'  858   6.048   3.819   5.232
   40U     H5'1  859   6.118   3.774   5.162
   40U     H5'2  860   5.956   3.850   5.183
   40U      C4'  861   6.017   3.723   5.348
   40U      H4'  862   5.982   3.628   5.306
   40U      O4'  863   6.144   3.686   5.409
   40U      C1'  864   6.109   3.636   5.534
   40U      H1'  865   6.096   3.528   5.522
   40U       N1  866   6.227   3.659   5.626
   40U       C6  867   6.264   3.780   5.679
   40U       H6  868   6.210   3.870   5.656
   40U       C5  869   6.368   3.794   5.764
   40U       H5  870   6.395   3.895   5.790
   40U       C4  871   6.446   3.681   5.804
   40U       O4  872   6.555   3.682   5.867
   40U       N3  873   6.399   3.564   5.757
   40U       H3  874   6.443   3.477   5.784
   40U       C2  875   6.296   3.546   5.668
   40U       O2  876   6.269   3.437   5.628
   40U      C3'  877   5.937   3.772   5.460
   40U      H3'  878   5.968   3.874   5.480
   40U      C2'  879   5.979   3.691   5.587
   40U     H2'1  880   6.000   3.766   5.663
   40U      O2'  881   5.901   3.577   5.616
   40U     HO'2  882   5.839   3.608   5.682
   40U      O3'  883   5.795   3.763   5.428
   41U        P  884   5.695   3.856   5.499
   41U      O1P  885   5.560   3.855   5.436
   41U      O2P  886   5.759   3.989   5.506
   41U      O5'  887   5.690   3.793   5.643
   41U      C5'  888   5.603   3.681   5.674
   41U     H5'1  889   5.632   3.599   5.608
   41U     H5'2  890   5.505   3.721   5.650
   41U      C4'  891   5.606   3.627   5.815
   41U      H4'  892   5.564   3.526   5.805
   41U      O4'  893   5.741   3.603   5.844
   41U      C1'  894   5.774   3.654   5.973
   41U      H1'  895   5.741   3.589   6.054
   41U       N1  896   5.920   3.690   5.993
   41U       C6  897   5.976   3.810   5.951
   41U       H6  898   5.924   3.877   5.884
   41U       C5  899   6.108   3.838   5.983
   41U       H5  900   6.154   3.927   5.943
   41U       C4  901   6.197   3.746   6.047
   41U       O4  902   6.316   3.761   6.069
   41U       N3  903   6.127   3.632   6.092
   41U       H3  904   6.185   3.572   6.149
   41U       C2  905   5.994   3.604   6.073
   41U       O2  906   5.951   3.490   6.115
   41U      C3'  907   5.547   3.723   5.922
   41U      H3'  908   5.478   3.796   5.879
   41U      C2'  909   5.678   3.772   5.978
   41U     H2'1  910   5.711   3.840   5.899
   41U      O2'  911   5.667   3.842   6.099
   41U     HO'2  912   5.574   3.853   6.118
   41U      O3'  913   5.486   3.630   6.009
   42G        P  914   5.383   3.668   6.122
   42G      O1P  915   5.252   3.616   6.084
   42G      O2P  916   5.399   3.815   6.148
   42G      O5'  917   5.443   3.587   6.240
   42G      C5'  918   5.443   3.451   6.242
   42G     H5'1  919   5.499   3.416   6.155
   42G     H5'2  920   5.343   3.409   6.233
   42G      C4'  921   5.505   3.390   6.370
   42G      H4'  922   5.477   3.287   6.394
   42G      O4'  923   5.648   3.383   6.369
   42G      C1'  924   5.711   3.396   6.494
   42G      H1'  925   5.761   3.301   6.515
   42G       N9  926   5.794   3.519   6.490
   42G       C8  927   5.803   3.616   6.389
   42G       H8  928   5.756   3.608   6.292
   42G       N7  929   5.876   3.719   6.421
   42G       C5  930   5.930   3.682   6.546
   42G       C6  931   6.008   3.760   6.645
   42G       O6  932   6.059   3.873   6.629
   42G       N1  933   6.035   3.698   6.760
   42G       H1  934   6.076   3.752   6.835
   42G       C2  935   5.988   3.579   6.781
   42G       N2  936   6.017   3.531   6.901
   42G      H21  937   6.069   3.589   6.965
   42G      H22  938   5.984   3.439   6.929
   42G       N3  939   5.909   3.502   6.705
   42G       C4  940   5.892   3.554   6.581
   42G      C3'  941   5.476   3.454   6.502
   42G      H3'  942   5.486   3.562   6.493
   42G      C2'  943   5.588   3.408   6.593
   42G     H2'1  944   5.604   3.476   6.677
   42G      O2'  945   5.576   3.280   6.653
   42G     HO'2  946   5.484   3.255   6.662
   42G      O3'  947   5.344   3.413   6.544
   43G        P  948   5.251   3.522   6.611
   43G      O1P  949   5.120   3.467   6.648
   43G      O2P  950   5.252   3.640   6.522
   43G      O5'  951   5.339   3.543   6.741
   43G      C5'  952   5.333   3.449   6.851
   43G     H5'1  953   5.363   3.349   6.818
   43G     H5'2  954   5.231   3.443   6.890
   43G      C4'  955   5.424   3.487   6.965
   43G      H4'  956   5.428   3.409   7.041
   43G      O4'  957   5.557   3.512   6.925
   43G      C1'  958   5.612   3.615   7.002
   43G      H1'  959   5.700   3.580   7.056
   43G       N9  960   5.654   3.725   6.917
   43G       C8  961   5.648   3.733   6.783
   43G       H8  962   5.592   3.668   6.717
   43G       N7  963   5.701   3.844   6.734
   43G       C5  964   5.761   3.904   6.848
   43G       C6  965   5.840   4.024   6.863
   43G       O6  966   5.869   4.106   6.780
   43G       N1  967   5.896   4.043   6.990
   43G       H1  968   5.939   4.127   7.026
   43G       C2  969   5.876   3.950   7.093
   43G       N2  970   5.922   3.978   7.210
   43G      H21  971   5.979   4.059   7.227
   43G      H22  972   5.903   3.911   7.283
   43G       N3  973   5.788   3.846   7.085
   43G       C4  974   5.743   3.826   6.960
   43G      C3'  975   5.376   3.612   7.035
   43G      H3'  976   5.343   3.681   6.957
   43G      C2'  977   5.510   3.662   7.101
   43G     H2'1  978   5.512   3.769   7.118
   43G      O2'  979   5.547   3.600   7.221
   43G     HO'2  980   5.467   3.563   7.259
   43G      O3'  981   5.272   3.594   7.130
   44G        P  982   5.175   3.705   7.170
   44G      O1P  983   5.088   3.642   7.272
   44G      O2P  984   5.110   3.760   7.048
   44G      O5'  985   5.259   3.824   7.230
   44G      C5'  986   5.299   3.819   7.369
   44G     H5'1  987   5.345   3.725   7.399
   44G     H5'2  988   5.207   3.834   7.425
   44G      C4'  989   5.397   3.922   7.409
   44G      H4'  990   5.436   3.900   7.508
   44G      O4'  991   5.508   3.927   7.319
   44G      C1'  992   5.571   4.056   7.324
   44G      H1'  993   5.668   4.041   7.371
   44G       N9  994   5.575   4.115   7.186
   44G       C8  995   5.508   4.074   7.074
   44G       H8  996   5.435   3.994   7.074
   44G       N7  997   5.533   4.150   6.970
   44G       C5  998   5.634   4.239   7.021
   44G       C6  999   5.713   4.340   6.959
   44G       O6 1000   5.716   4.375   6.843
   44G       N1 1001   5.792   4.413   7.042
   44G       H1 1002   5.823   4.502   7.006
   44G       C2 1003   5.807   4.390   7.174
   44G       N2 1004   5.876   4.479   7.239
   44G      H21 1005   5.924   4.552   7.189
   44G      H22 1006   5.899   4.453   7.334
   44G       N3 1007   5.742   4.288   7.233
   44G       C4 1008   5.659   4.220   7.153
   44G      C3' 1009   5.352   4.064   7.413
   44G      H3' 1010   5.296   4.091   7.323
   44G      C2' 1011   5.485   4.138   7.415
   44G     H2'1 1012   5.472   4.240   7.380
   44G      O2' 1013   5.549   4.141   7.541
   44G     HO'2 1014   5.635   4.181   7.529
   44G      O3' 1015   5.268   4.099   7.523
   45A        P 1016   5.188   4.234   7.522
   45A      O1P 1017   5.102   4.227   7.643
   45A      O2P 1018   5.119   4.242   7.396
   45A      O5' 1019   5.284   4.366   7.532
   45A      C5' 1020   5.332   4.407   7.652
   45A     H5'1 1021   5.383   4.324   7.701
   45A     H5'2 1022   5.254   4.444   7.719
   45A      C4' 1023   5.434   4.526   7.643
   45A      H4' 1024   5.472   4.541   7.744
   45A      O4' 1025   5.545   4.498   7.563
   45A      C1' 1026   5.583   4.616   7.488
   45A      H1' 1027   5.686   4.640   7.513
   45A       N9 1028   5.543   4.596   7.343
   45A       C8 1029   5.473   4.494   7.282
   45A       H8 1030   5.413   4.425   7.340
   45A       N7 1031   5.474   4.499   7.152
   45A       C5 1032   5.554   4.612   7.125
   45A       C6 1033   5.597   4.687   7.016
   45A       N6 1034   5.581   4.647   6.895
   45A      H61 1035   5.537   4.560   6.867
   45A      H62 1036   5.620   4.708   6.824
   45A       N1 1037   5.670   4.801   7.022
   45A       C2 1038   5.696   4.852   7.144
   45A       H2 1039   5.740   4.950   7.150
   45A       N3 1040   5.663   4.795   7.254
   45A       C4 1041   5.589   4.678   7.241
   45A      C3' 1042   5.369   4.648   7.592
   45A      H3' 1043   5.316   4.618   7.501
   45A      C2' 1044   5.495   4.725   7.548
   45A     H2'1 1045   5.463   4.802   7.478
   45A      O2' 1046   5.571   4.776   7.656
   45A     HO'2 1047   5.514   4.841   7.697
   45A      O3' 1048   5.286   4.707   7.690
   46G        P 1049   5.151   4.780   7.635
   46G      O1P 1050   5.093   4.849   7.752
   46G      O2P 1051   5.080   4.679   7.562
   46G      O5' 1052   5.208   4.890   7.536
   46G      C5' 1053   5.278   5.003   7.574
   46G     H5'1 1054   5.366   4.981   7.635
   46G     H5'2 1055   5.216   5.059   7.644
   46G      C4' 1056   5.306   5.098   7.462
   46G      H4' 1057   5.357   5.187   7.498
   46G      O4' 1058   5.395   5.023   7.375
   46G      C1' 1059   5.369   5.050   7.240
   46G      H1' 1060   5.459   5.091   7.194
   46G       N9 1061   5.324   4.934   7.160
   46G       C8 1062   5.261   4.817   7.197
   46G       H8 1063   5.243   4.785   7.298
   46G       N7 1064   5.238   4.740   7.094
   46G       C5 1065   5.276   4.817   6.987
   46G       C6 1066   5.269   4.791   6.843
   46G       O6 1067   5.228   4.691   6.782
   46G       N1 1068   5.325   4.885   6.760
   46G       H1 1069   5.334   4.866   6.661
   46G       C2 1070   5.390   4.990   6.812
   46G       N2 1071   5.452   5.058   6.718
   46G      H21 1072   5.441   5.024   6.623
   46G      H22 1073   5.509   5.137   6.743
   46G       N3 1074   5.400   5.026   6.944
   46G       C4 1075   5.342   4.930   7.023
   46G      C3' 1076   5.191   5.142   7.378
   46G      H3' 1077   5.122   5.059   7.363
   46G      C2' 1078   5.265   5.154   7.241
   46G     H2'1 1079   5.201   5.136   7.154
   46G      O2' 1080   5.324   5.289   7.224
   46G     HO'2 1081   5.277   5.351   7.280
   46G      O3' 1082   5.134   5.274   7.400
   47U        P 1083   5.039   5.318   7.521
   47U      O1P 1084   5.092   5.447   7.575
   47U      O2P 1085   5.023   5.200   7.611
   47U      O5' 1086   4.891   5.341   7.450
   47U      C5' 1087   4.870   5.464   7.383
   47U     H5'1 1088   4.958   5.493   7.325
   47U     H5'2 1089   4.861   5.542   7.458
   47U      C4' 1090   4.743   5.451   7.302
   47U      H4' 1091   4.713   5.555   7.292
   47U      O4' 1092   4.776   5.409   7.178
   47U      C1' 1093   4.691   5.296   7.151
   47U      H1' 1094   4.615   5.331   7.081
   47U       N1 1095   4.772   5.197   7.081
   47U       C6 1096   4.871   5.136   7.149
   47U       H6 1097   4.887   5.167   7.251
   47U       C5 1098   4.934   5.024   7.098
   47U       H5 1099   4.994   4.956   7.157
   47U       C4 1100   4.885   4.969   6.971
   47U       O4 1101   4.921   4.865   6.916
   47U       N3 1102   4.796   5.050   6.904
   47U       H3 1103   4.759   5.006   6.821
   47U       C2 1104   4.728   5.161   6.955
   47U       O2 1105   4.639   5.219   6.890
   47U      C3' 1106   4.621   5.379   7.366
   47U      H3' 1107   4.633   5.349   7.470
   47U      C2' 1108   4.615   5.249   7.283
   47U     H2'1 1109   4.672   5.170   7.332
   47U      O2' 1110   4.484   5.204   7.244
   47U     HO'2 1111   4.436   5.202   7.327
   47U      O3' 1112   4.501   5.460   7.336
   48U        P 1113   4.465   5.590   7.416
   48U      O1P 1114   4.425   5.695   7.319
   48U      O2P 1115   4.572   5.618   7.504
   48U      O5' 1116   4.336   5.535   7.498
   48U      C5' 1117   4.336   5.442   7.605
   48U     H5'1 1118   4.372   5.484   7.699
   48U     H5'2 1119   4.382   5.346   7.580
   48U      C4' 1120   4.189   5.407   7.623
   48U      H4' 1121   4.181   5.328   7.698
   48U      O4' 1122   4.115   5.521   7.671
   48U      C1' 1123   3.991   5.531   7.608
   48U      H1' 1124   3.918   5.462   7.651
   48U       N1 1125   3.938   5.671   7.602
   48U       C6 1126   4.007   5.779   7.548
   48U       H6 1127   4.103   5.763   7.502
   48U       C5 1128   3.962   5.906   7.576
   48U       H5 1129   4.006   5.996   7.536
   48U       C4 1130   3.843   5.938   7.645
   48U       O4 1131   3.784   6.048   7.657
   48U       N3 1132   3.772   5.824   7.679
   48U       H3 1133   3.674   5.833   7.701
   48U       C2 1134   3.819   5.696   7.671
   48U       O2 1135   3.751   5.605   7.724
   48U      C3' 1136   4.119   5.367   7.495
   48U      H3' 1137   4.190   5.374   7.412
   48U      C2' 1138   4.018   5.476   7.467
   48U     H2'1 1139   4.062   5.550   7.400
   48U      O2' 1140   3.897   5.437   7.410
   48U     HO'2 1141   3.861   5.358   7.452
   48U      O3' 1142   4.067   5.236   7.496
   49U        P 1143   4.157   5.110   7.444
   49U      O1P 1144   4.095   4.986   7.484
   49U      O2P 1145   4.297   5.134   7.478
   49U      O5' 1146   4.135   5.120   7.287
   49U      C5' 1147   4.004   5.097   7.238
   49U     H5'1 1148   3.942   5.180   7.271
   49U     H5'2 1149   3.954   5.014   7.288
   49U      C4' 1150   4.004   5.083   7.087
   49U      H4' 1151   3.908   5.040   7.057
   49U      O4' 1152   4.038   5.202   7.014
   49U      C1' 1153   4.150   5.183   6.932
   49U      H1' 1154   4.124   5.149   6.831
   49U       N1 1155   4.221   5.321   6.918
   49U       C6 1156   4.289   5.369   7.024
   49U       H6 1157   4.276   5.313   7.115
   49U       C5 1158   4.370   5.478   7.007
   49U       H5 1159   4.438   5.500   7.088
   49U       C4 1160   4.383   5.549   6.884
   49U       O4 1161   4.452   5.648   6.863
   49U       N3 1162   4.303   5.495   6.779
   49U       H3 1163   4.317   5.542   6.690
   49U       C2 1164   4.214   5.387   6.796
   49U       O2 1165   4.132   5.354   6.707
   49U      C3' 1166   4.104   4.984   7.046
   49U      H3' 1167   4.139   4.921   7.128
   49U      C2' 1168   4.225   5.073   7.006
   49U     H2'1 1169   4.270   5.096   7.102
   49U      O2' 1170   4.323   5.010   6.929
   49U     HO'2 1171   4.277   4.940   6.881
   49U      O3' 1172   4.045   4.909   6.942
   50C        P 1173   4.101   4.787   6.871
   50C      O1P 1174   4.000   4.685   6.878
   50C      O2P 1175   4.233   4.739   6.917
   50C      O5' 1176   4.107   4.844   6.728
   50C      C5' 1177   3.988   4.842   6.644
   50C     H5'1 1178   3.904   4.878   6.704
   50C     H5'2 1179   3.969   4.738   6.615
   50C      C4' 1180   3.999   4.933   6.524
   50C      H4' 1181   3.910   4.926   6.461
   50C      O4' 1182   4.028   5.068   6.552
   50C      C1' 1183   4.104   5.115   6.443
   50C      H1' 1184   4.052   5.199   6.398
   50C       N1 1185   4.235   5.164   6.484
   50C       C6 1186   4.292   5.115   6.602
   50C       H6 1187   4.238   5.036   6.653
   50C       C5 1188   4.405   5.166   6.654
   50C       H5 1189   4.443   5.119   6.743
   50C       C4 1190   4.461   5.277   6.584
   50C       N4 1191   4.567   5.331   6.641
   50C      H41 1192   4.599   5.300   6.731
   50C      H42 1193   4.615   5.396   6.581
   50C       N3 1194   4.411   5.323   6.472
   50C       C2 1195   4.307   5.265   6.415
   50C       O2 1196   4.269   5.313   6.309
   50C      C3' 1197   4.108   4.876   6.428
   50C      H3' 1198   4.198   4.853   6.485
   50C      C2' 1199   4.124   5.003   6.343
   50C     H2'1 1200   4.224   5.004   6.300
   50C      O2' 1201   4.023   5.003   6.243
   50C     HO'2 1202   4.020   4.911   6.215
   50C      O3' 1203   4.067   4.765   6.348
   51U        P 1204   4.153   4.650   6.284
   51U      O1P 1205   4.054   4.589   6.186
   51U      O2P 1206   4.206   4.568   6.390
   51U      O5' 1207   4.271   4.730   6.210
   51U      C5' 1208   4.263   4.777   6.072
   51U     H5'1 1209   4.162   4.815   6.057
   51U     H5'2 1210   4.276   4.695   6.001
   51U      C4' 1211   4.371   4.877   6.044
   51U      H4' 1212   4.362   4.919   5.944
   51U      O4' 1213   4.376   4.987   6.132
   51U      C1' 1214   4.513   5.019   6.147
   51U      H1' 1215   4.523   5.119   6.105
   51U       N1 1216   4.554   5.019   6.296
   51U       C6 1217   4.508   4.921   6.379
   51U       H6 1218   4.429   4.858   6.341
   51U       C5 1219   4.554   4.904   6.499
   51U       H5 1220   4.517   4.825   6.563
   51U       C4 1221   4.664   4.991   6.549
   51U       O4 1222   4.723   4.968   6.654
   51U       N3 1223   4.696   5.099   6.469
   51U       H3 1224   4.775   5.157   6.493
   51U       C2 1225   4.641   5.117   6.340
   51U       O2 1226   4.670   5.213   6.272
   51U      C3' 1227   4.510   4.812   6.042
   51U      H3' 1228   4.513   4.745   6.128
   51U      C2' 1229   4.595   4.935   6.058
   51U     H2'1 1230   4.686   4.912   6.114
   51U      O2' 1231   4.626   5.000   5.939
   51U     HO'2 1232   4.721   4.988   5.938
   51U      O3' 1233   4.529   4.738   5.919
   52A        P 1234   4.649   4.639   5.903
   52A      O1P 1235   4.649   4.599   5.762
   52A      O2P 1236   4.634   4.533   6.002
   52A      O5' 1237   4.786   4.729   5.924
   52A      C5' 1238   4.828   4.802   5.803
   52A     H5'1 1239   4.737   4.846   5.763
   52A     H5'2 1240   4.862   4.729   5.729
   52A      C4' 1241   4.930   4.913   5.827
   52A      H4' 1242   4.938   4.977   5.739
   52A      O4' 1243   4.884   5.001   5.935
   52A      C1' 1244   5.001   5.034   6.012
   52A      H1' 1245   5.018   5.141   6.015
   52A       N9 1246   4.999   4.981   6.149
   52A       C8 1247   4.945   4.866   6.200
   52A       H8 1248   4.892   4.799   6.133
   52A       N7 1249   4.958   4.853   6.328
   52A       C5 1250   5.020   4.971   6.361
   52A       C6 1251   5.067   5.018   6.492
   52A       N6 1252   5.036   4.969   6.610
   52A      H61 1253   4.968   4.894   6.613
   52A      H62 1254   5.055   5.023   6.692
   52A       N1 1255   5.135   5.133   6.496
   52A       C2 1256   5.169   5.187   6.379
   52A       H2 1257   5.222   5.281   6.385
   52A       N3 1258   5.147   5.152   6.254
   52A       C4 1259   5.057   5.048   6.254
   52A      C3' 1260   5.063   4.856   5.877
   52A      H3' 1261   5.052   4.769   5.942
   52A      C2' 1262   5.125   4.979   5.948
   52A     H2'1 1263   5.203   4.945   6.016
   52A      O2' 1264   5.178   5.072   5.854
   52A     HO'2 1265   5.183   5.032   5.766
   52A      O3' 1266   5.131   4.819   5.762
   53C        P 1267   5.269   4.737   5.753
   53C      O1P 1268   5.317   4.762   5.615
   53C      O2P 1269   5.257   4.594   5.788
   53C      O5' 1270   5.367   4.799   5.860
   53C      C5' 1271   5.449   4.904   5.823
   53C     H5'1 1272   5.387   4.987   5.790
   53C     H5'2 1273   5.520   4.886   5.741
   53C      C4' 1274   5.534   4.965   5.934
   53C      H4' 1275   5.596   5.047   5.899
   53C      O4' 1276   5.450   5.008   6.039
   53C      C1' 1277   5.509   4.974   6.165
   53C      H1' 1278   5.518   5.067   6.220
   53C       N1 1279   5.412   4.885   6.247
   53C       C6 1280   5.341   4.777   6.199
   53C       H6 1281   5.349   4.766   6.092
   53C       C5 1282   5.264   4.704   6.277
   53C       H5 1283   5.214   4.622   6.228
   53C       C4 1284   5.262   4.737   6.413
   53C       N4 1285   5.208   4.654   6.499
   53C      H41 1286   5.160   4.568   6.476
   53C      H42 1287   5.212   4.694   6.591
   53C       N3 1288   5.323   4.840   6.468
   53C       C2 1289   5.401   4.911   6.379
   53C       O2 1290   5.471   5.005   6.426
   53C      C3' 1291   5.642   4.873   5.991
   53C      H3' 1292   5.601   4.772   5.986
   53C      C2' 1293   5.651   4.916   6.138
   53C     H2'1 1294   5.674   4.825   6.193
   53C      O2' 1295   5.740   5.021   6.165
   53C     HO'2 1296   5.831   4.994   6.149
   53C      O3' 1297   5.766   4.879   5.919
   54C        P 1298   5.867   4.763   5.880
   54C      O1P 1299   5.814   4.641   5.947
   54C      O2P 1300   6.002   4.825   5.914
   54C      O5' 1301   5.859   4.755   5.725
   54C      C5' 1302   5.737   4.733   5.667
   54C     H5'1 1303   5.660   4.725   5.743
   54C     H5'2 1304   5.739   4.644   5.603
   54C      C4' 1305   5.699   4.835   5.560
   54C      H4' 1306   5.608   4.800   5.511
   54C      O4' 1307   5.661   4.973   5.597
   54C      C1' 1308   5.717   5.066   5.501
   54C      H1' 1309   5.643   5.137   5.464
   54C       N1 1310   5.843   5.142   5.542
   54C       C6 1311   5.913   5.103   5.649
   54C       H6 1312   5.884   5.016   5.706
   54C       C5 1313   6.022   5.175   5.685
   54C       H5 1314   6.067   5.154   5.781
   54C       C4 1315   6.057   5.290   5.613
   54C       N4 1316   6.154   5.365   5.651
   54C      H41 1317   6.197   5.363   5.742
   54C      H42 1318   6.175   5.445   5.594
   54C       N3 1319   5.991   5.331   5.504
   54C       C2 1320   5.887   5.255   5.466
   54C       O2 1321   5.817   5.292   5.368
   54C      C3' 1322   5.802   4.852   5.448
   54C      H3' 1323   5.900   4.867   5.494
   54C      C2' 1324   5.754   4.978   5.378
   54C     H2'1 1325   5.837   5.027   5.327
   54C      O2' 1326   5.638   4.960   5.297
   54C     HO'2 1327   5.673   4.893   5.238
   54C      O3' 1328   5.803   4.743   5.350
   55A        P 1329   5.925   4.710   5.252
   55A      O1P 1330   5.893   4.587   5.176
   55A      O2P 1331   6.054   4.722   5.330
   55A      O5' 1332   5.915   4.840   5.152
   55A      C5' 1333   5.823   4.849   5.045
   55A     H5'1 1334   5.724   4.835   5.087
   55A     H5'2 1335   5.840   4.765   4.978
   55A      C4' 1336   5.838   4.994   4.980
   55A      H4' 1337   5.750   5.014   4.919
   55A      O4' 1338   5.831   5.090   5.084
   55A      C1' 1339   5.919   5.196   5.047
   55A      H1' 1340   5.872   5.294   5.053
   55A       N9 1341   6.039   5.202   5.136
   55A       C8 1342   6.075   5.120   5.235
   55A       H8 1343   6.032   5.023   5.255
   55A       N7 1344   6.181   5.153   5.304
   55A       C5 1345   6.217   5.275   5.243
   55A       C6 1346   6.307   5.372   5.278
   55A       N6 1347   6.391   5.352   5.378
   55A      H61 1348   6.393   5.257   5.414
   55A      H62 1349   6.459   5.420   5.408
   55A       N1 1350   6.311   5.486   5.212
   55A       C2 1351   6.221   5.501   5.114
   55A       H2 1352   6.228   5.595   5.061
   55A       N3 1353   6.125   5.425   5.075
   55A       C4 1354   6.130   5.309   5.148
   55A      C3' 1355   5.963   5.021   4.893
   55A      H3' 1356   6.054   4.982   4.939
   55A      C2' 1357   5.958   5.175   4.897
   55A     H2'1 1358   6.056   5.218   4.875
   55A      O2' 1359   5.854   5.228   4.819
   55A     HO'2 1360   5.885   5.226   4.728
   55A      O3' 1361   5.946   4.981   4.756
   56A        P 1362   6.059   4.925   4.664
   56A      O1P 1363   5.985   4.877   4.542
   56A      O2P 1364   6.133   4.830   4.752
   56A      O5' 1365   6.149   5.053   4.625
   56A      C5' 1366   6.101   5.154   4.535
   56A     H5'1 1367   5.996   5.176   4.554
   56A     H5'2 1368   6.104   5.115   4.433
   56A      C4' 1369   6.185   5.283   4.530
   56A      H4' 1370   6.156   5.351   4.450
   56A      O4' 1371   6.182   5.338   4.665
   56A      C1' 1372   6.303   5.406   4.693
   56A      H1' 1373   6.295   5.513   4.708
   56A       N9 1374   6.380   5.341   4.802
   56A       C8 1375   6.375   5.208   4.857
   56A       H8 1376   6.325   5.126   4.806
   56A       N7 1377   6.441   5.199   4.969
   56A       C5 1378   6.489   5.321   4.998
   56A       C6 1379   6.585   5.370   5.087
   56A       N6 1380   6.641   5.301   5.182
   56A      H61 1381   6.596   5.215   5.210
   56A      H62 1382   6.697   5.351   5.249
   56A       N1 1383   6.639   5.490   5.077
   56A       C2 1384   6.587   5.567   4.977
   56A       H2 1385   6.629   5.666   4.971
   56A       N3 1386   6.499   5.535   4.884
   56A       C4 1387   6.457   5.410   4.896
   56A      C3' 1388   6.333   5.258   4.504
   56A      H3' 1389   6.349   5.168   4.563
   56A      C2' 1390   6.384   5.392   4.557
   56A     H2'1 1391   6.491   5.380   4.573
   56A      O2' 1392   6.365   5.504   4.470
   56A     HO'2 1393   6.392   5.582   4.518
   56A      O3' 1394   6.369   5.241   4.369
   57G        P 1395   6.513   5.182   4.341
   57G      O1P 1396   6.521   5.146   4.195
   57G      O2P 1397   6.533   5.065   4.431
   57G      O5' 1398   6.631   5.285   4.368
   57G      C5' 1399   6.649   5.403   4.292
   57G     H5'1 1400   6.550   5.445   4.272
   57G     H5'2 1401   6.700   5.375   4.200
   57G      C4' 1402   6.736   5.510   4.361
   57G      H4' 1403   6.740   5.605   4.309
   57G      O4' 1404   6.697   5.548   4.491
   57G      C1' 1405   6.810   5.555   4.579
   57G      H1' 1406   6.817   5.654   4.624
   57G       N9 1407   6.815   5.450   4.678
   57G       C8 1408   6.758   5.330   4.670
   57G       H8 1409   6.684   5.311   4.593
   57G       N7 1410   6.785   5.257   4.775
   57G       C5 1411   6.871   5.332   4.854
   57G       C6 1412   6.935   5.301   4.979
   57G       O6 1413   6.929   5.201   5.042
   57G       N1 1414   7.014   5.406   5.024
   57G       H1 1415   7.070   5.393   5.107
   57G       C2 1416   7.017   5.532   4.963
   57G       N2 1417   7.098   5.621   5.010
   57G      H21 1418   7.166   5.598   5.081
   57G      H22 1419   7.102   5.714   4.971
   57G       N3 1420   6.959   5.557   4.847
   57G       C4 1421   6.881   5.457   4.799
   57G      C3' 1422   6.883   5.468   4.364
   57G      H3' 1423   6.884   5.362   4.392
   57G      C2' 1424   6.934   5.546   4.476
   57G     H2'1 1425   7.016   5.492   4.524
   57G      O2' 1426   6.964   5.678   4.436
   57G     HO'2 1427   7.022   5.672   4.360
   57G      O3' 1428   6.949   5.484   4.243
   58A        P 1429   7.064   5.386   4.202
   58A      O1P 1430   7.116   5.416   4.067
   58A      O2P 1431   7.016   5.251   4.223
   58A      O5' 1432   7.184   5.405   4.313
   58A      C5' 1433   7.260   5.528   4.299
   58A     H5'1 1434   7.191   5.608   4.275
   58A     H5'2 1435   7.335   5.515   4.221
   58A      C4' 1436   7.316   5.581   4.435
   58A      H4' 1437   7.344   5.685   4.422
   58A      O4' 1438   7.228   5.563   4.539
   58A      C1' 1439   7.292   5.514   4.654
   58A      H1' 1440   7.267   5.583   4.734
   58A       N9 1441   7.249   5.382   4.698
   58A       C8 1442   7.182   5.285   4.629
   58A       H8 1443   7.141   5.292   4.529
   58A       N7 1444   7.157   5.177   4.701
   58A       C5 1445   7.219   5.207   4.819
   58A       C6 1446   7.235   5.133   4.940
   58A       N6 1447   7.179   5.016   4.959
   58A      H61 1448   7.118   4.989   4.883
   58A      H62 1449   7.206   4.966   5.042
   58A       N1 1450   7.310   5.175   5.041
   58A       C2 1451   7.360   5.295   5.028
   58A       H2 1452   7.411   5.329   5.117
   58A       N3 1453   7.344   5.381   4.924
   58A       C4 1454   7.274   5.326   4.824
   58A      C3' 1455   7.442   5.495   4.472
   58A      H3' 1456   7.430   5.387   4.461
   58A      C2' 1457   7.448   5.516   4.618
   58A     H2'1 1458   7.501   5.448   4.685
   58A      O2' 1459   7.488   5.648   4.644
   58A     HO'2 1460   7.476   5.655   4.739
   58A      O3' 1461   7.562   5.540   4.402
   59G        P 1462   7.677   5.439   4.371
   59G      O1P 1463   7.780   5.519   4.304
   59G      O2P 1464   7.623   5.316   4.300
   59G      O5' 1465   7.729   5.398   4.522
   59G      C5' 1466   7.825   5.476   4.591
   59G     H5'1 1467   7.800   5.581   4.600
   59G     H5'2 1468   7.915   5.477   4.528
   59G      C4' 1469   7.834   5.415   4.729
   59G      H4' 1470   7.885   5.490   4.788
   59G      O4' 1471   7.705   5.389   4.790
   59G      C1' 1472   7.720   5.266   4.865
   59G      H1' 1473   7.690   5.262   4.969
   59G       N9 1474   7.644   5.150   4.801
   59G       C8 1475   7.571   5.141   4.686
   59G       H8 1476   7.562   5.220   4.613
   59G       N7 1477   7.495   5.035   4.679
   59G       C5 1478   7.520   4.965   4.797
   59G       C6 1479   7.458   4.854   4.860
   59G       O6 1480   7.361   4.786   4.826
   59G       N1 1481   7.522   4.816   4.980
   59G       H1 1482   7.483   4.731   5.018
   59G       C2 1483   7.623   4.893   5.040
   59G       N2 1484   7.691   4.838   5.139
   59G      H21 1485   7.658   4.750   5.177
   59G      H22 1486   7.769   4.886   5.181
   59G       N3 1487   7.668   5.009   4.995
   59G       C4 1488   7.621   5.035   4.870
   59G      C3' 1489   7.908   5.281   4.720
   59G      H3' 1490   7.858   5.216   4.648
   59G      C2' 1491   7.870   5.234   4.858
   59G     H2'1 1492   7.882   5.126   4.867
   59G      O2' 1493   7.945   5.300   4.960
   59G     HO'2 1494   7.898   5.282   5.041
   59G      O3' 1495   8.048   5.285   4.695
   60C        P 1496   8.122   5.185   4.605
   60C      O1P 1497   8.248   5.244   4.558
   60C      O2P 1498   8.020   5.152   4.504
   60C      O5' 1499   8.151   5.052   4.698
   60C      C5' 1500   8.221   5.059   4.821
   60C     H5'1 1501   8.199   5.152   4.873
   60C     H5'2 1502   8.329   5.063   4.804
   60C      C4' 1503   8.185   4.952   4.917
   60C      H4' 1504   8.246   4.956   5.007
   60C      O4' 1505   8.047   4.949   4.949
   60C      C1' 1506   7.997   4.812   4.954
   60C      H1' 1507   7.940   4.796   5.045
   60C       N1 1508   7.899   4.778   4.845
   60C       C6 1509   7.885   4.857   4.734
   60C       H6 1510   7.942   4.947   4.716
   60C       C5 1511   7.780   4.829   4.642
   60C       H5 1512   7.757   4.899   4.563
   60C       C4 1513   7.710   4.712   4.667
   60C       N4 1514   7.608   4.689   4.589
   60C      H41 1515   7.595   4.749   4.509
   60C      H42 1516   7.555   4.604   4.604
   60C       N3 1517   7.734   4.627   4.767
   60C       C2 1518   7.828   4.660   4.858
   60C       O2 1519   7.864   4.577   4.943
   60C      C3' 1520   8.219   4.821   4.852
   60C      H3' 1521   8.190   4.815   4.747
   60C      C2' 1522   8.127   4.730   4.936
   60C     H2'1 1523   8.107   4.635   4.886
   60C      O2' 1524   8.172   4.707   5.064
   60C     HO'2 1525   8.265   4.732   5.068
   60C      O3' 1526   8.361   4.789   4.881
   61C        P 1527   8.452   4.729   4.772
   61C      O1P 1528   8.585   4.746   4.828
   61C      O2P 1529   8.417   4.800   4.650
   61C      O5' 1530   8.416   4.575   4.771
   61C      C5' 1531   8.445   4.491   4.885
   61C     H5'1 1532   8.430   4.554   4.972
   61C     H5'2 1533   8.549   4.459   4.875
   61C      C4' 1534   8.364   4.366   4.895
   61C      H4' 1535   8.398   4.305   4.979
   61C      O4' 1536   8.220   4.393   4.908
   61C      C1' 1537   8.148   4.288   4.851
   61C      H1' 1538   8.081   4.253   4.929
   61C       N1 1539   8.066   4.341   4.736
   61C       C6 1540   8.095   4.457   4.671
   61C       H6 1541   8.179   4.518   4.701
   61C       C5 1542   8.015   4.494   4.570
   61C       H5 1543   8.028   4.589   4.520
   61C       C4 1544   7.900   4.421   4.538
   61C       N4 1545   7.815   4.478   4.460
   61C      H41 1546   7.843   4.561   4.410
   61C      H42 1547   7.726   4.432   4.449
   61C       N3 1548   7.865   4.317   4.607
   61C       C2 1549   7.954   4.269   4.696
   61C       O2 1550   7.922   4.167   4.755
   61C      C3' 1551   8.370   4.275   4.769
   61C      H3' 1552   8.353   4.336   4.680
   61C      C2' 1553   8.241   4.185   4.801
   61C     H2'1 1554   8.204   4.130   4.714
   61C      O2' 1555   8.275   4.094   4.911
   61C     HO'2 1556   8.200   4.059   4.959
   61C      O3' 1557   8.493   4.206   4.754
   62U        P 1558   8.556   4.189   4.610
   62U      O1P 1559   8.687   4.124   4.631
   62U      O2P 1560   8.557   4.319   4.541
   62U      O5' 1561   8.467   4.092   4.526
   62U      C5' 1562   8.423   3.966   4.584
   62U     H5'1 1563   8.336   3.991   4.645
   62U     H5'2 1564   8.501   3.932   4.652
   62U      C4' 1565   8.397   3.848   4.491
   62U      H4' 1566   8.392   3.764   4.560
   62U      O4' 1567   8.285   3.869   4.410
   62U      C1' 1568   8.329   3.841   4.279
   62U      H1' 1569   8.335   3.733   4.263
   62U       N1 1570   8.230   3.902   4.186
   62U       C6 1571   8.259   4.009   4.105
   62U       H6 1572   8.357   4.055   4.110
   62U       C5 1573   8.170   4.061   4.018
   62U       H5 1574   8.189   4.155   3.969
   62U       C4 1575   8.045   4.002   4.005
   62U       O4 1576   7.969   4.038   3.915
   62U       N3 1577   8.012   3.902   4.093
   62U       H3 1578   7.921   3.859   4.093
   62U       C2 1579   8.101   3.840   4.174
   62U       O2 1580   8.079   3.737   4.233
   62U      C3' 1581   8.520   3.837   4.408
   62U      H3' 1582   8.604   3.897   4.443
   62U      C2' 1583   8.468   3.901   4.276
   62U     H2'1 1584   8.470   4.008   4.294
   62U      O2' 1585   8.547   3.881   4.160
   62U     HO'2 1586   8.631   3.926   4.171
   62U      O3' 1587   8.562   3.700   4.376
   63U        P 1588   8.617   3.603   4.484
   63U      O1P 1589   8.649   3.685   4.604
   63U      O2P 1590   8.720   3.519   4.414
   63U      O5' 1591   8.495   3.510   4.521
   63U      C5' 1592   8.449   3.490   4.656
   63U     H5'1 1593   8.396   3.583   4.674
   63U     H5'2 1594   8.540   3.460   4.708
   63U      C4' 1595   8.346   3.375   4.655
   63U      H4' 1596   8.317   3.345   4.755
   63U      O4' 1597   8.233   3.420   4.599
   63U      C1' 1598   8.166   3.313   4.525
   63U      H1' 1599   8.081   3.279   4.584
   63U       N1 1600   8.124   3.364   4.394
   63U       C6 1601   8.219   3.416   4.306
   63U       H6 1602   8.326   3.418   4.324
   63U       C5 1603   8.176   3.459   4.184
   63U       H5 1604   8.249   3.491   4.111
   63U       C4 1605   8.035   3.453   4.140
   63U       O4 1606   7.993   3.485   4.026
   63U       N3 1607   7.954   3.407   4.240
   63U       H3 1608   7.854   3.408   4.224
   63U       C2 1609   7.990   3.355   4.362
   63U       O2 1610   7.908   3.305   4.438
   63U      C3' 1611   8.393   3.243   4.592
   63U      H3' 1612   8.474   3.262   4.521
   63U      C2' 1613   8.267   3.197   4.522
   63U     H2'1 1614   8.289   3.172   4.418
   63U      O2' 1615   8.205   3.079   4.586
   63U     HO'2 1616   8.261   3.059   4.661
   63U      O3' 1617   8.440   3.149   4.699
   64A        P 1618   8.588   3.173   4.764
   64A      O1P 1619   8.668   3.233   4.655
   64A      O2P 1620   8.635   3.060   4.837
   64A      O5' 1621   8.564   3.286   4.874
   64A      C5' 1622   8.481   3.251   4.987
   64A     H5'1 1623   8.521   3.171   5.049
   64A     H5'2 1624   8.390   3.212   4.942
   64A      C4' 1625   8.446   3.378   5.063
   64A      H4' 1626   8.534   3.405   5.121
   64A      O4' 1627   8.415   3.486   4.976
   64A      C1' 1628   8.339   3.573   5.051
   64A      H1' 1629   8.399   3.663   5.064
   64A       N9 1630   8.229   3.605   4.957
   64A       C8 1631   8.222   3.721   4.886
   64A       H8 1632   8.282   3.808   4.908
   64A       N7 1633   8.144   3.715   4.782
   64A       C5 1634   8.080   3.588   4.804
   64A       C6 1635   7.979   3.521   4.731
   64A       N6 1636   7.917   3.567   4.623
   64A      H61 1637   7.945   3.655   4.582
   64A      H62 1638   7.844   3.514   4.578
   64A       N1 1639   7.935   3.399   4.771
   64A       C2 1640   7.994   3.350   4.875
   64A       H2 1641   7.959   3.250   4.899
   64A       N3 1642   8.096   3.399   4.949
   64A       C4 1643   8.132   3.523   4.912
   64A      C3' 1644   8.352   3.378   5.179
   64A      H3' 1645   8.268   3.313   5.153
   64A      C2' 1646   8.297   3.523   5.184
   64A     H2'1 1647   8.189   3.520   5.198
   64A      O2' 1648   8.368   3.599   5.278
   64A     HO'2 1649   8.307   3.629   5.346
   64A      O3' 1650   8.417   3.335   5.293
   65A        P 1651   8.341   3.237   5.391
   65A      O1P 1652   8.434   3.198   5.499
   65A      O2P 1653   8.271   3.129   5.314
   65A      O5' 1654   8.220   3.336   5.448
   65A      C5' 1655   8.245   3.418   5.556
   65A     H5'1 1656   8.344   3.464   5.550
   65A     H5'2 1657   8.233   3.356   5.645
   65A      C4' 1658   8.130   3.516   5.562
   65A      H4' 1659   8.160   3.583   5.642
   65A      O4' 1660   8.123   3.599   5.447
   65A      C1' 1661   7.983   3.630   5.428
   65A      H1' 1662   7.942   3.698   5.502
   65A       N9 1663   7.948   3.679   5.292
   65A       C8 1664   7.884   3.618   5.188
   65A       H8 1665   7.848   3.516   5.187
   65A       N7 1666   7.872   3.684   5.078
   65A       C5 1667   7.942   3.801   5.109
   65A       C6 1668   7.971   3.921   5.037
   65A       N6 1669   7.941   3.941   4.911
   65A      H61 1670   7.881   3.870   4.871
   65A      H62 1671   7.945   4.037   4.880
   65A       N1 1672   8.034   4.025   5.095
   65A       C2 1673   8.060   4.016   5.225
   65A       H2 1674   8.107   4.101   5.271
   65A       N3 1675   8.045   3.915   5.303
   65A       C4 1676   7.986   3.804   5.243
   65A      C3' 1677   7.987   3.469   5.592
   65A      H3' 1678   7.978   3.363   5.616
   65A      C2' 1679   7.927   3.493   5.453
   65A     H2'1 1680   7.965   3.421   5.379
   65A      O2' 1681   7.785   3.476   5.461
   65A     HO'2 1682   7.755   3.482   5.552
   65A      O3' 1683   7.946   3.551   5.703
   66A        P 1684   7.820   3.508   5.797
   66A      O1P 1685   7.865   3.395   5.876
   66A      O2P 1686   7.698   3.495   5.716
   66A      O5' 1687   7.793   3.621   5.908
   66A      C5' 1688   7.709   3.728   5.888
   66A     H5'1 1689   7.657   3.751   5.981
   66A     H5'2 1690   7.639   3.707   5.807
   66A      C4' 1691   7.789   3.858   5.854
   66A      H4' 1692   7.854   3.876   5.939
   66A      O4' 1693   7.865   3.848   5.728
   66A      C1' 1694   7.862   3.980   5.664
   66A      H1' 1695   7.964   4.018   5.659
   66A       N9 1696   7.784   3.965   5.544
   66A       C8 1697   7.693   3.868   5.509
   66A       H8 1698   7.685   3.778   5.568
   66A       N7 1699   7.622   3.890   5.398
   66A       C5 1700   7.679   4.010   5.352
   66A       C6 1701   7.657   4.099   5.249
   66A       N6 1702   7.575   4.084   5.151
   66A      H61 1703   7.532   3.993   5.138
   66A      H62 1704   7.563   4.157   5.082
   66A       N1 1705   7.715   4.216   5.244
   66A       C2 1706   7.806   4.253   5.335
   66A       H2 1707   7.849   4.351   5.328
   66A       N3 1708   7.834   4.181   5.442
   66A       C4 1709   7.777   4.060   5.441
   66A      C3' 1710   7.701   3.982   5.840
   66A      H3' 1711   7.614   3.964   5.776
   66A      C2' 1712   7.804   4.074   5.774
   66A     H2'1 1713   7.749   4.161   5.739
   66A      O2' 1714   7.913   4.106   5.862
   66A     HO'2 1715   7.885   4.159   5.937
   66A      O3' 1716   7.642   4.022   5.965
   67C        P 1717   7.514   4.112   5.968
   67C      O1P 1718   7.510   4.168   6.100
   67C      O2P 1719   7.402   4.035   5.918
   67C      O5' 1720   7.538   4.231   5.866
   67C      C5' 1721   7.483   4.230   5.730
   67C     H5'1 1722   7.374   4.232   5.731
   67C     H5'2 1723   7.512   4.129   5.700
   67C      C4' 1724   7.528   4.341   5.639
   67C      H4' 1725   7.636   4.353   5.650
   67C      O4' 1726   7.506   4.321   5.508
   67C      C1' 1727   7.523   4.445   5.447
   67C      H1' 1728   7.625   4.450   5.409
   67C       N1 1729   7.434   4.476   5.330
   67C       C6 1730   7.299   4.443   5.334
   67C       H6 1731   7.261   4.380   5.413
   67C       C5 1732   7.215   4.498   5.242
   67C       H5 1733   7.109   4.482   5.250
   67C       C4 1734   7.273   4.584   5.143
   67C       N4 1735   7.199   4.644   5.045
   67C      H41 1736   7.103   4.619   5.030
   67C      H42 1737   7.250   4.711   4.989
   67C       N3 1738   7.402   4.608   5.133
   67C       C2 1739   7.482   4.546   5.223
   67C       O2 1740   7.599   4.575   5.215
   67C      C3' 1741   7.475   4.483   5.687
   67C      H3' 1742   7.371   4.470   5.717
   67C      C2' 1743   7.498   4.558   5.558
   67C     H2'1 1744   7.414   4.622   5.533
   67C      O2' 1745   7.612   4.635   5.560
   67C     HO'2 1746   7.620   4.673   5.648
   67C      O3' 1747   7.557   4.531   5.795
   68U        P 1748   7.498   4.649   5.899
   68U      O1P 1749   7.563   4.635   6.033
   68U      O2P 1750   7.350   4.647   5.896
   68U      O5' 1751   7.556   4.782   5.826
   68U      C5' 1752   7.675   4.855   5.857
   68U     H5'1 1753   7.757   4.786   5.836
   68U     H5'2 1754   7.664   4.879   5.962
   68U      C4' 1755   7.708   4.969   5.763
   68U      H4' 1756   7.812   4.997   5.778
   68U      O4' 1757   7.684   4.924   5.630
   68U      C1' 1758   7.652   5.041   5.552
   68U      H1' 1759   7.733   5.040   5.479
   68U       N1 1760   7.524   5.013   5.477
   68U       C6 1761   7.443   4.906   5.504
   68U       H6 1762   7.474   4.847   5.589
   68U       C5 1763   7.331   4.879   5.433
   68U       H5 1764   7.263   4.802   5.467
   68U       C4 1765   7.298   4.942   5.314
   68U       O4 1766   7.215   4.906   5.236
   68U       N3 1767   7.385   5.048   5.289
   68U       H3 1768   7.376   5.078   5.193
   68U       C2 1769   7.500   5.079   5.356
   68U       O2 1770   7.575   5.166   5.308
   68U      C3' 1771   7.616   5.090   5.773
   68U      H3' 1772   7.515   5.050   5.768
   68U      C2' 1773   7.653   5.155   5.640
   68U     H2'1 1774   7.580   5.229   5.608
   68U      O2' 1775   7.784   5.203   5.634
   68U     HO'2 1776   7.805   5.261   5.707
   68U      O3' 1777   7.631   5.178   5.882
   69C        P 1778   7.506   5.264   5.935
   69C      O1P 1779   7.559   5.315   6.065
   69C      O2P 1780   7.386   5.177   5.933
   69C      O5' 1781   7.477   5.385   5.832
   69C      C5' 1782   7.571   5.490   5.823
   69C     H5'1 1783   7.665   5.437   5.809
   69C     H5'2 1784   7.587   5.560   5.905
   69C      C4' 1785   7.537   5.573   5.691
   69C      H4' 1786   7.620   5.641   5.671
   69C      O4' 1787   7.522   5.487   5.583
   69C      C1' 1788   7.461   5.544   5.468
   69C      H1' 1789   7.537   5.555   5.390
   69C       N1 1790   7.347   5.453   5.430
   69C       C6 1791   7.317   5.347   5.513
   69C       H6 1792   7.373   5.323   5.602
   69C       C5 1793   7.215   5.264   5.483
   69C       H5 1794   7.186   5.179   5.543
   69C       C4 1795   7.145   5.293   5.360
   69C       N4 1796   7.036   5.226   5.325
   69C      H41 1797   7.021   5.137   5.371
   69C      H42 1798   6.994   5.246   5.235
   69C       N3 1799   7.181   5.395   5.280
   69C       C2 1800   7.285   5.477   5.313
   69C       O2 1801   7.310   5.572   5.237
   69C      C3' 1802   7.407   5.654   5.677
   69C      H3' 1803   7.322   5.588   5.694
   69C      C2' 1804   7.414   5.685   5.528
   69C     H2'1 1805   7.322   5.729   5.489
   69C      O2' 1806   7.512   5.782   5.496
   69C     HO'2 1807   7.494   5.802   5.404
   69C      O3' 1808   7.403   5.774   5.757
   70U        P 1809   7.264   5.844   5.777
   70U      O1P 1810   7.278   5.971   5.850
   70U      O2P 1811   7.169   5.739   5.820
   70U      O5' 1812   7.214   5.888   5.634
   70U      C5' 1813   7.269   6.001   5.565
   70U     H5'1 1814   7.377   5.998   5.548
   70U     H5'2 1815   7.252   6.096   5.616
   70U      C4' 1816   7.204   6.011   5.427
   70U      H4' 1817   7.259   6.078   5.361
   70U      O4' 1818   7.194   5.885   5.366
   70U      C1' 1819   7.073   5.874   5.288
   70U      H1' 1820   7.095   5.856   5.182
   70U       N1 1821   6.990   5.759   5.329
   70U       C6 1822   7.019   5.687   5.440
   70U       H6 1823   7.099   5.725   5.502
   70U       C5 1824   6.954   5.574   5.468
   70U       H5 1825   6.987   5.518   5.554
   70U       C4 1826   6.850   5.524   5.380
   70U       O4 1827   6.790   5.419   5.390
   70U       N3 1828   6.822   5.608   5.272
   70U       H3 1829   6.773   5.568   5.193
   70U       C2 1830   6.884   5.724   5.241
   70U       O2 1831   6.847   5.784   5.140
   70U      C3' 1832   7.058   6.060   5.440
   70U      H3' 1833   7.009   6.013   5.525
   70U      C2' 1834   7.007   6.008   5.302
   70U     H2'1 1835   6.900   5.991   5.310
   70U      O2' 1836   7.046   6.090   5.193
   70U     HO'2 1837   6.977   6.084   5.126
   70U      O3' 1838   7.032   6.201   5.447
   71U        P 1839   6.901   6.260   5.520
   71U      O1P 1840   6.919   6.406   5.544
   71U      O2P 1841   6.880   6.179   5.640
   71U      O5' 1842   6.778   6.232   5.419
   71U      C5' 1843   6.777   6.293   5.292
   71U     H5'1 1844   6.880   6.280   5.259
   71U     H5'2 1845   6.751   6.398   5.305
   71U      C4' 1846   6.678   6.229   5.194
   71U      H4' 1847   6.687   6.276   5.096
   71U      O4' 1848   6.705   6.094   5.182
   71U      C1' 1849   6.585   6.022   5.164
   71U      H1' 1850   6.566   5.984   5.063
   71U       N1 1851   6.571   5.901   5.256
   71U       C6 1852   6.641   5.898   5.381
   71U       H6 1853   6.699   5.984   5.410
   71U       C5 1854   6.634   5.792   5.468
   71U       H5 1855   6.694   5.782   5.557
   71U       C4 1856   6.543   5.685   5.435
   71U       O4 1857   6.523   5.589   5.501
   71U       N3 1858   6.478   5.695   5.314
   71U       H3 1859   6.423   5.615   5.285
   71U       C2 1860   6.495   5.793   5.215
   71U       O2 1861   6.440   5.788   5.100
   71U      C3' 1862   6.538   6.227   5.264
   71U      H3' 1863   6.552   6.212   5.371
   71U      C2' 1864   6.463   6.112   5.199
   71U     H2'1 1865   6.403   6.074   5.282
   71U      O2' 1866   6.391   6.146   5.084
   71U     HO'2 1867   6.314   6.201   5.102
   71U      O3' 1868   6.466   6.354   5.236
   72G        P 1869   6.356   6.408   5.327
   72G      O1P 1870   6.335   6.550   5.283
   72G      O2P 1871   6.397   6.383   5.466
   72G      O5' 1872   6.225   6.327   5.287
   72G      C5' 1873   6.143   6.361   5.170
   72G     H5'1 1874   6.204   6.378   5.081
   72G     H5'2 1875   6.108   6.463   5.184
   72G      C4' 1876   6.023   6.278   5.136
   72G      H4' 1877   5.959   6.320   5.058
   72G      O4' 1878   6.070   6.148   5.098
   72G      C1' 1879   5.989   6.046   5.161
   72G      H1' 1880   5.957   5.972   5.088
   72G       N9 1881   6.062   5.969   5.262
   72G       C8 1882   6.156   6.013   5.349
   72G       H8 1883   6.181   6.117   5.361
   72G       N7 1884   6.204   5.913   5.424
   72G       C5 1885   6.127   5.800   5.390
   72G       C6 1886   6.118   5.668   5.451
   72G       O6 1887   6.182   5.622   5.546
   72G       N1 1888   6.031   5.585   5.379
   72G       H1 1889   6.026   5.486   5.399
   72G       C2 1890   5.950   5.626   5.284
   72G       N2 1891   5.860   5.548   5.235
   72G      H21 1892   5.836   5.454   5.265
   72G      H22 1893   5.802   5.591   5.164
   72G       N3 1894   5.945   5.751   5.235
   72G       C4 1895   6.042   5.835   5.291
   72G      C3' 1896   5.934   6.257   5.253
   72G      H3' 1897   5.996   6.248   5.342
   72G      C2' 1898   5.872   6.118   5.219
   72G     H2'1 1899   5.848   6.067   5.312
   72G      O2' 1900   5.761   6.117   5.134
   72G     HO'2 1901   5.691   6.159   5.184
   72G      O3' 1902   5.828   6.359   5.263
   73A        P 1903   5.739   6.361   5.389
   73A      O1P 1904   5.656   6.479   5.376
   73A      O2P 1905   5.810   6.331   5.517
   73A      O5' 1906   5.645   6.233   5.355
   73A      C5' 1907   5.513   6.224   5.403
   73A     H5'1 1908   5.457   6.305   5.357
   73A     H5'2 1909   5.501   6.234   5.511
   73A      C4' 1910   5.451   6.083   5.365
   73A      H4' 1911   5.440   6.069   5.257
   73A      O4' 1912   5.524   5.983   5.429
   73A      C1' 1913   5.443   5.876   5.474
   73A      H1' 1914   5.460   5.783   5.420
   73A       N9 1915   5.458   5.847   5.611
   73A       C8 1916   5.553   5.898   5.700
   73A       H8 1917   5.622   5.978   5.678
   73A       N7 1918   5.562   5.834   5.812
   73A       C5 1919   5.471   5.729   5.793
   73A       C6 1920   5.431   5.619   5.872
   73A       N6 1921   5.486   5.597   5.994
   73A      H61 1922   5.554   5.664   6.026
   73A      H62 1923   5.491   5.508   6.041
   73A       N1 1924   5.340   5.530   5.833
   73A       C2 1925   5.291   5.547   5.708
   73A       H2 1926   5.219   5.474   5.674
   73A       N3 1927   5.315   5.649   5.624
   73A       C4 1928   5.407   5.737   5.673
   73A      C3' 1929   5.314   6.073   5.435
   73A      H3' 1930   5.331   6.110   5.536
   73A      C2' 1931   5.300   5.926   5.445
   73A     H2'1 1932   5.226   5.897   5.519
   73A      O2' 1933   5.256   5.886   5.318
   73A     HO'2 1934   5.204   5.961   5.288
   73A      O3' 1935   5.206   6.135   5.363
   74U        P 1936   5.113   6.243   5.442
   74U      O1P 1937   5.015   6.288   5.346
   74U      O2P 1938   5.193   6.339   5.518
   74U      O5' 1939   5.036   6.143   5.537
   74U      C5' 1940   4.937   6.051   5.494
   74U     H5'1 1941   4.952   6.002   5.398
   74U     H5'2 1942   4.851   6.115   5.473
   74U      C4' 1943   4.899   5.949   5.596
   74U      H4' 1944   4.834   5.871   5.555
   74U      O4' 1945   5.017   5.882   5.644
   74U      C1' 1946   4.994   5.834   5.774
   74U      H1' 1947   4.987   5.725   5.776
   74U       N1 1948   5.101   5.877   5.863
   74U       C6 1949   5.164   5.996   5.845
   74U       H6 1950   5.132   6.059   5.763
   74U       C5 1951   5.265   6.034   5.931
   74U       H5 1952   5.323   6.122   5.909
   74U       C4 1953   5.312   5.949   6.034
   74U       O4 1954   5.411   5.966   6.106
   74U       N3 1955   5.239   5.833   6.052
   74U       H3 1956   5.261   5.780   6.135
   74U       C2 1957   5.139   5.791   5.966
   74U       O2 1958   5.075   5.692   5.995
   74U      C3' 1959   4.841   6.013   5.719
   74U      H3' 1960   4.894   6.102   5.751
   74U      C2' 1961   4.864   5.901   5.819
   74U     H2'1 1962   4.879   5.950   5.915
   74U      O2' 1963   4.756   5.814   5.808
   74U     HO'2 1964   4.676   5.867   5.810
   74U      O3' 1965   4.702   6.037   5.697
   75U        P 1966   4.605   6.116   5.800
   75U      O1P 1967   4.491   6.169   5.721
   75U      O2P 1968   4.680   6.201   5.897
   75U      O5' 1969   4.549   5.994   5.892
   75U      C5' 1970   4.459   5.888   5.845
   75U     H5'1 1971   4.498   5.843   5.753
   75U     H5'2 1972   4.363   5.935   5.826
   75U      C4' 1973   4.448   5.775   5.952
   75U      H4' 1974   4.410   5.688   5.898
   75U      O4' 1975   4.568   5.724   5.988
   75U      C1' 1976   4.593   5.722   6.131
   75U      H1' 1977   4.611   5.622   6.170
   75U       N1 1978   4.715   5.808   6.166
   75U       C6 1979   4.717   5.944   6.141
   75U       H6 1980   4.626   5.991   6.108
   75U       C5 1981   4.818   6.023   6.194
   75U       H5 1982   4.803   6.129   6.198
   75U       C4 1983   4.933   5.952   6.257
   75U       O4 1984   5.032   6.006   6.293
   75U       N3 1985   4.925   5.817   6.266
   75U       H3 1986   5.000   5.762   6.306
   75U       C2 1987   4.826   5.742   6.222
   75U       O2 1988   4.833   5.618   6.239
   75U      C3' 1989   4.379   5.819   6.082
   75U      H3' 1990   4.372   5.927   6.078
   75U      C2' 1991   4.474   5.775   6.202
   75U     H2'1 1992   4.496   5.865   6.258
   75U      O2' 1993   4.437   5.677   6.296
   75U     HO'2 1994   4.352   5.685   6.339
   75U      O3' 1995   4.258   5.752   6.080
   76A        P 1996   4.141   5.812   6.162
   76A      O1P 1997   4.018   5.735   6.122
   76A      O2P 1998   4.148   5.958   6.137
   76A      O5' 1999   4.159   5.778   6.319
   76A      C5' 2000   4.107   5.658   6.383
   76A     H5'1 2001   4.166   5.570   6.357
   76A     H5'2 2002   4.001   5.644   6.363
   76A      C4' 2003   4.133   5.685   6.531
   76A      H4' 2004   4.111   5.596   6.591
   76A      O4' 2005   4.265   5.737   6.559
   76A      C1' 2006   4.255   5.835   6.662
   76A      H1' 2007   4.324   5.806   6.741
   76A       N9 2008   4.294   5.971   6.608
   76A       C8 2009   4.328   6.005   6.484
   76A       H8 2010   4.332   5.933   6.403
   76A       N7 2011   4.348   6.129   6.464
   76A       C5 2012   4.333   6.184   6.591
   76A       C6 2013   4.358   6.309   6.650
   76A       N6 2014   4.399   6.413   6.581
   76A      H61 2015   4.436   6.394   6.488
   76A      H62 2016   4.412   6.506   6.617
   76A       N1 2017   4.348   6.328   6.788
   76A       C2 2018   4.312   6.221   6.861
   76A       H2 2019   4.293   6.239   6.965
   76A       N3 2020   4.299   6.092   6.815
   76A       C4 2021   4.308   6.081   6.680
   76A      C3' 2022   4.040   5.805   6.576
   76A      H3' 2023   4.057   5.889   6.509
   76A      C2' 2024   4.112   5.848   6.710
   76A     H2'1 2025   4.094   5.953   6.733
   76A      O2' 2026   4.089   5.757   6.815
   76A     HO'2 2027   4.123   5.797   6.895
   76A      O3' 2028   3.901   5.764   6.576
   77U        P 2029   3.792   5.870   6.547
   77U      O1P 2030   3.662   5.804   6.574
   77U      O2P 2031   3.810   5.935   6.418
   77U      O5' 2032   3.821   5.962   6.671
   77U      C5' 2033   3.796   5.922   6.804
   77U     H5'1 2034   3.863   5.839   6.828
   77U     H5'2 2035   3.692   5.894   6.820
   77U      C4' 2036   3.830   6.031   6.907
   77U      H4' 2037   3.826   5.990   7.008
   77U      O4' 2038   3.963   6.081   6.899
   77U      C1' 2039   3.964   6.222   6.946
   77U      H1' 2040   4.029   6.220   7.033
   77U       N1 2041   4.014   6.322   6.840
   77U       C6 2042   4.022   6.282   6.710
   77U       H6 2043   4.008   6.176   6.692
   77U       C5 2044   4.056   6.376   6.615
   77U       H5 2045   4.064   6.346   6.511
   77U       C4 2046   4.088   6.514   6.642
   77U       O4 2047   4.112   6.604   6.566
   77U       N3 2048   4.083   6.543   6.777
   77U       H3 2049   4.114   6.636   6.799
   77U       C2 2050   4.047   6.454   6.872
   77U       O2 2051   4.040   6.496   6.991
   77U      C3' 2052   3.740   6.158   6.890
   77U      H3' 2053   3.738   6.192   6.786
   77U      C2' 2054   3.821   6.263   6.977
   77U     H2'1 2055   3.790   6.359   6.936
   77U      O2' 2056   3.786   6.239   7.109
   77U     HO'2 2057   3.732   6.314   7.135
   77U      O3' 2058   3.612   6.136   6.938
   78G        P 2059   3.491   6.233   6.889
   78G      O1P 2060   3.367   6.174   6.934
   78G      O2P 2061   3.514   6.272   6.744
   78G      O5' 2062   3.515   6.363   6.976
   78G      C5' 2063   3.477   6.368   7.112
   78G     H5'1 2064   3.510   6.273   7.155
   78G     H5'2 2065   3.369   6.374   7.122
   78G      C4' 2066   3.547   6.484   7.181
   78G      H4' 2067   3.542   6.486   7.290
   78G      O4' 2068   3.690   6.490   7.140
   78G      C1' 2069   3.719   6.627   7.111
   78G      H1' 2070   3.801   6.667   7.170
   78G       N9 2071   3.753   6.655   6.971
   78G       C8 2072   3.713   6.585   6.859
   78G       H8 2073   3.649   6.498   6.864
   78G       N7 2074   3.765   6.630   6.749
   78G       C5 2075   3.839   6.747   6.792
   78G       C6 2076   3.909   6.847   6.721
   78G       O6 2077   3.916   6.853   6.599
   78G       N1 2078   3.963   6.949   6.800
   78G       H1 2079   4.010   7.024   6.751
   78G       C2 2080   3.939   6.953   6.938
   78G       N2 2081   3.987   7.051   6.999
   78G      H21 2082   4.054   7.106   6.947
   78G      H22 2083   3.979   7.069   7.098
   78G       N3 2084   3.875   6.857   7.007
   78G       C4 2085   3.829   6.760   6.926
   78G      C3' 2086   3.480   6.611   7.130
   78G      H3' 2087   3.456   6.608   7.023
   78G      C2' 2088   3.599   6.709   7.144
   78G     H2'1 2089   3.589   6.798   7.082
   78G      O2' 2090   3.613   6.738   7.280
   78G     HO'2 2091   3.528   6.750   7.322
   78G      O3' 2092   3.363   6.648   7.200
   79A        P 2093   3.269   6.767   7.152
   79A      O1P 2094   3.155   6.772   7.252
   79A      O2P 2095   3.243   6.739   7.007
   79A      O5' 2096   3.358   6.898   7.163
   79A      C5' 2097   3.361   6.969   7.279
   79A     H5'1 2098   3.398   6.906   7.360
   79A     H5'2 2099   3.264   7.006   7.310
   79A      C4' 2100   3.455   7.099   7.265
   79A      H4' 2101   3.487   7.127   7.365
   79A      O4' 2102   3.571   7.069   7.188
   79A      C1' 2103   3.617   7.180   7.122
   79A      H1' 2104   3.720   7.205   7.146
   79A       N9 2105   3.624   7.149   6.977
   79A       C8 2106   3.546   7.065   6.900
   79A       H8 2107   3.469   7.005   6.947
   79A       N7 2108   3.587   7.059   6.775
   79A       C5 2109   3.697   7.145   6.767
   79A       C6 2110   3.786   7.178   6.663
   79A       N6 2111   3.780   7.121   6.543
   79A      H61 2112   3.710   7.057   6.509
   79A      H62 2113   3.853   7.154   6.482
   79A       N1 2114   3.872   7.279   6.678
   79A       C2 2115   3.879   7.324   6.804
   79A       H2 2116   3.954   7.398   6.827
   79A       N3 2117   3.812   7.296   6.913
   79A       C4 2118   3.722   7.197   6.888
   79A      C3' 2119   3.392   7.224   7.194
   79A      H3' 2120   3.347   7.189   7.101
   79A      C2' 2121   3.520   7.299   7.150
   79A     H2'1 2122   3.499   7.357   7.060
   79A      O2' 2123   3.563   7.388   7.256
   79A     HO'2 2124   3.514   7.470   7.252
   79A      O3' 2125   3.294   7.294   7.272
   80A        P 2126   3.193   7.386   7.199
   80A      O1P 2127   3.096   7.440   7.293
   80A      O2P 2128   3.138   7.307   7.092
   80A      O5' 2129   3.287   7.502   7.139
   80A      C5' 2130   3.322   7.611   7.211
   80A     H5'1 2131   3.358   7.585   7.310
   80A     H5'2 2132   3.234   7.672   7.231
   80A      C4' 2133   3.422   7.696   7.129
   80A      H4' 2134   3.459   7.778   7.191
   80A      O4' 2135   3.526   7.624   7.076
   80A      C1' 2136   3.567   7.669   6.944
   80A      H1' 2137   3.674   7.686   6.952
   80A       N9 2138   3.531   7.564   6.843
   80A       C8 2139   3.435   7.463   6.846
   80A       H8 2140   3.368   7.440   6.927
   80A       N7 2141   3.429   7.395   6.738
   80A       C5 2142   3.519   7.457   6.650
   80A       C6 2143   3.553   7.446   6.513
   80A       N6 2144   3.511   7.351   6.431
   80A      H61 2145   3.447   7.289   6.478
   80A      H62 2146   3.577   7.332   6.357
   80A       N1 2147   3.631   7.539   6.452
   80A       C2 2148   3.684   7.633   6.529
   80A       H2 2149   3.752   7.700   6.479
   80A       N3 2150   3.658   7.658   6.659
   80A       C4 2151   3.576   7.564   6.710
   80A      C3' 2152   3.357   7.773   7.017
   80A      H3' 2153   3.281   7.723   6.957
   80A      C2' 2154   3.479   7.793   6.923
   80A     H2'1 2155   3.456   7.816   6.819
   80A      O2' 2156   3.567   7.890   6.969
   80A     HO'2 2157   3.649   7.884   6.920
   80A      O3' 2158   3.312   7.897   7.060
   81G        P 2159   3.197   7.973   6.988
   81G      O1P 2160   3.163   8.098   7.061
   81G      O2P 2161   3.089   7.876   6.982
   81G      O5' 2162   3.249   8.008   6.832
   81G      C5' 2163   3.359   8.097   6.815
   81G     H5'1 2164   3.437   8.083   6.890
   81G     H5'2 2165   3.329   8.201   6.823
   81G      C4' 2166   3.419   8.094   6.674
   81G      H4' 2167   3.503   8.162   6.663
   81G      O4' 2168   3.456   7.964   6.649
   81G      C1' 2169   3.451   7.947   6.507
   81G      H1' 2170   3.554   7.954   6.472
   81G       N9 2171   3.374   7.818   6.485
   81G       C8 2172   3.297   7.739   6.568
   81G       H8 2173   3.259   7.767   6.665
   81G       N7 2174   3.267   7.630   6.508
   81G       C5 2175   3.317   7.637   6.377
   81G       C6 2176   3.305   7.549   6.263
   81G       O6 2177   3.251   7.439   6.250
   81G       N1 2178   3.350   7.607   6.145
   81G       H1 2179   3.328   7.554   6.062
   81G       C2 2180   3.393   7.738   6.143
   81G       N2 2181   3.404   7.798   6.026
   81G      H21 2182   3.400   7.753   5.935
   81G      H22 2183   3.442   7.891   6.038
   81G       N3 2184   3.411   7.818   6.246
   81G       C4 2185   3.370   7.762   6.362
   81G      C3' 2186   3.311   8.122   6.566
   81G      H3' 2187   3.218   8.070   6.588
   81G      C2' 2188   3.376   8.057   6.443
   81G     H2'1 2189   3.301   8.011   6.379
   81G      O2' 2190   3.455   8.153   6.373
   81G     HO'2 2191   3.449   8.226   6.435
   81G      O3' 2192   3.298   8.266   6.550
   82U        P 2193   3.163   8.332   6.497
   82U      O1P 2194   3.197   8.468   6.465
   82U      O2P 2195   3.055   8.313   6.595
   82U      O5' 2196   3.121   8.256   6.363
   82U      C5' 2197   3.179   8.284   6.234
   82U     H5'1 2198   3.288   8.281   6.228
   82U     H5'2 2199   3.133   8.380   6.213
   82U      C4' 2200   3.122   8.176   6.130
   82U      H4' 2201   3.147   8.213   6.030
   82U      O4' 2202   3.177   8.051   6.155
   82U      C1' 2203   3.077   7.952   6.130
   82U      H1' 2204   3.106   7.873   6.060
   82U       N1 2205   3.037   7.886   6.260
   82U       C6 2206   3.018   7.952   6.382
   82U       H6 2207   3.032   8.058   6.394
   82U       C5 2208   2.979   7.886   6.493
   82U       H5 2209   2.976   7.944   6.584
   82U       C4 2210   2.960   7.740   6.492
   82U       O4 2211   2.910   7.671   6.586
   82U       N3 2212   2.971   7.679   6.365
   82U       H3 2213   2.952   7.580   6.363
   82U       C2 2214   3.009   7.748   6.251
   82U       O2 2215   3.005   7.689   6.143
   82U      C3' 2216   2.967   8.163   6.131
   82U      H3' 2217   2.936   8.172   6.235
   82U      C2' 2218   2.962   8.023   6.067
   82U     H2'1 2219   2.864   7.975   6.075
   82U      O2' 2220   2.988   8.025   5.930
   82U     HO'2 2221   2.911   8.054   5.881
   82U      O3' 2222   2.912   8.264   6.056
   83G        P 2223   2.758   8.286   6.069
   83G      O1P 2224   2.717   8.415   6.020
   83G      O2P 2225   2.717   8.251   6.204
   83G      O5' 2226   2.708   8.181   5.976
   83G      C5' 2227   2.702   8.198   5.836
   83G     H5'1 2228   2.800   8.219   5.792
   83G     H5'2 2229   2.636   8.279   5.806
   83G      C4' 2230   2.648   8.071   5.764
   83G      H4' 2231   2.659   8.084   5.656
   83G      O4' 2232   2.727   7.960   5.801
   83G      C1' 2233   2.642   7.839   5.779
   83G      H1' 2234   2.685   7.783   5.696
   83G       N9 2235   2.640   7.761   5.903
   83G       C8 2236   2.635   7.803   6.031
   83G       H8 2237   2.628   7.906   6.063
   83G       N7 2238   2.636   7.706   6.123
   83G       C5 2239   2.640   7.590   6.036
   83G       C6 2240   2.648   7.443   6.058
   83G       O6 2241   2.637   7.379   6.159
   83G       N1 2242   2.661   7.372   5.943
   83G       H1 2243   2.675   7.273   5.958
   83G       C2 2244   2.651   7.420   5.817
   83G       N2 2245   2.658   7.338   5.714
   83G      H21 2246   2.656   7.240   5.741
   83G      H22 2247   2.690   7.366   5.622
   83G       N3 2248   2.656   7.551   5.790
   83G       C4 2249   2.647   7.630   5.904
   83G      C3' 2250   2.503   8.033   5.793
   83G      H3' 2251   2.488   8.044   5.900
   83G      C2' 2252   2.498   7.886   5.749
   83G     H2'1 2253   2.426   7.828   5.807
   83G      O2' 2254   2.480   7.873   5.609
   83G     HO'2 2255   2.428   7.950   5.587
   83G      O3' 2256   2.415   8.110   5.715
   83G      H3T 2257   2.381   8.178   5.772
   84SOL     OW 2258   3.768   4.648   2.719
   84SOL    HW1 2259   3.747   4.720   2.778
   84SOL    HW2 2260   3.828   4.686   2.655
   85SOL     OW 2261   9.500   0.235   1.422
   85SOL    HW1 2262   9.588   0.235   1.384
   85SOL    HW2 2263   9.442   0.218   1.347
   86SOL     OW 2264   6.420   6.362  10.525
   86SOL    HW1 2265   6.478   6.418  10.474
   86SOL    HW2 2266   6.371   6.312  10.459
   87SOL     OW 2267  10.885   5.680   9.433
   87SOL    HW1 2268  10.867   5.594   9.471
   87SOL    HW2 2269  10.952   5.663   9.367
   88SOL     OW 2270   1.372   0.238   1.667
   88SOL    HW1 2271   1.295   0.181   1.675
   88SOL    HW2 2272   1.435   0.186   1.617
   89SOL     OW 2273   5.517   0.837   2.457
   89SOL    HW1 2274   5.429   0.809   2.433
   89SOL    HW2 2275   5.563   0.845   2.373
   90SOL     OW 2276   2.398   9.623   0.420
   90SOL    HW1 2277   2.339   9.552   0.395
   90SOL    HW2 2278   2.341   9.690   0.457
   91SOL     OW 2279  10.227   4.076   4.371
   91SOL    HW1 2280  10.153   4.025   4.339
   91SOL    HW2 2281  10.191   4.129   4.442
   92SOL     OW 2282  10.164   0.757   6.548
   92SOL    HW1 2283  10.136   0.666   6.539
   92SOL    HW2 2284  10.240   0.753   6.606
   93SOL     OW 2285   9.597   7.499   2.652
   93SOL    HW1 2286   9.599   7.420   2.597
   93SOL    HW2 2287   9.640   7.566   2.599
   94SOL     OW 2288   6.823   7.524   0.054
   94SOL    HW1 2289   6.738   7.553   0.086
   94SOL    HW2 2290   6.807   7.435   0.022
   95SOL     OW 2291   4.202  10.533   2.617
   95SOL    HW1 2292   4.246  10.449   2.629
   95SOL    HW2 2293   4.273  10.595   2.602
   96SOL     OW 2294   4.374   8.720   5.848
   96SOL    HW1 2295   4.447   8.719   5.785
   96SOL    HW2 2296   4.408   8.769   5.923
   97SOL     OW 2297   3.168   4.586   1.590
   97SOL    HW1 2298   3.082   4.544   1.588
   97SOL    HW2 2299   3.176   4.628   1.504
   98SOL     OW 2300   1.547   2.702   3.786
   98SOL    HW1 2301   1.462   2.662   3.767
   98SOL    HW2 2302   1.533   2.795   3.772
   99SOL     OW 2303   8.881  10.540   9.443
   99SOL    HW1 2304   8.895  10.599   9.369
   99SOL    HW2 2305   8.866  10.454   9.403
  100SOL     OW 2306   5.413   9.822   1.410
  100SOL    HW1 2307   5.355   9.894   1.387
  100SOL    HW2 2308   5.486   9.863   1.456
  101SOL     OW 2309   6.073   9.517   2.335
  101SOL    HW1 2310   6.043   9.429   2.311
  101SOL    HW2 2311   6.159   9.503   2.374
  102SOL     OW 2312   6.092   7.910   1.161
  102SOL    HW1 2313   6.087   7.991   1.111
  102SOL    HW2 2314   6.163   7.924   1.223
  103SOL     OW 2315   4.271   7.716   4.459
  103SOL    HW1 2316   4.323   7.682   4.532
  103SOL    HW2 2317   4.276   7.648   4.392
  104SOL     OW 2318   0.146   4.190   2.348
  104SOL    HW1 2319   0.168   4.203   2.255
  104SOL    HW2 2320   0.053   4.167   2.347
  105SOL     OW 2321   3.988   8.964   2.877
  105SOL    HW1 2322   3.951   9.000   2.957
  105SOL    HW2 2323   4.035   9.037   2.836
  106SOL     OW 2324   2.941   3.612   1.474
  106SOL    HW1 2325   2.870   3.548   1.477
  106SOL    HW2 2326   2.915   3.673   1.405
  107SOL     OW 2327   5.894   2.330   9.387
  107SOL    HW1 2328   5.930   2.286   9.310
  107SOL    HW2 2329   5.800   2.335   9.370
  108SOL     OW 2330   1.404   4.125   4.524
  108SOL    HW1 2331   1.441   4.193   4.579
  108SOL    HW2 2332   1.450   4.134   4.440
  109SOL     OW 2333  10.546   9.109   9.188
  109SOL    HW1 2334  10.456   9.076   9.181
  109SOL    HW2 2335  10.588   9.052   9.253
  110SOL     OW 2336   9.706  10.165   0.649
  110SOL    HW1 2337   9.653  10.174   0.728
  110SOL    HW2 2338   9.793  10.194   0.675
  111SOL     OW 2339   0.400   9.965  10.565
  111SOL    HW1 2340   0.344   9.980  10.641
  111SOL    HW2 2341   0.450  10.046  10.556
  112SOL     OW 2342   9.131   9.323   5.329
  112SOL    HW1 2343   9.089   9.294   5.410
  112SOL    HW2 2344   9.191   9.392   5.357
  113SOL     OW 2345   7.293  10.450   2.809
  113SOL    HW1 2346   7.307  10.545   2.805
  113SOL    HW2 2347   7.199  10.441   2.825
  114SOL     OW 2348   0.836   8.027   0.070
  114SOL    HW1 2349   0.743   8.024   0.093
  114SOL    HW2 2350   0.877   8.072   0.144
  115SOL     OW 2351   9.055   4.131   4.958
  115SOL    HW1 2352   9.124   4.123   4.891
  115SOL    HW2 2353   9.046   4.042   4.994
  116SOL     OW 2354   7.951  10.594   1.011
  116SOL    HW1 2355   7.860  10.577   0.988
  116SOL    HW2 2356   8.000  10.525   0.966
  117SOL     OW 2357   9.269   7.113   5.328
  117SOL    HW1 2358   9.331   7.046   5.299
  117SOL    HW2 2359   9.324   7.183   5.363
  118SOL     OW 2360   4.018   4.396   4.947
  118SOL    HW1 2361   4.092   4.346   4.981
  118SOL    HW2 2362   4.005   4.466   5.010
  119SOL     OW 2363   2.675   6.328   9.652
  119SOL    HW1 2364   2.676   6.273   9.730
  119SOL    HW2 2365   2.730   6.403   9.674
  120SOL     OW 2366   2.773   0.653   8.423
  120SOL    HW1 2367   2.856   0.670   8.468
  120SOL    HW2 2368   2.783   0.564   8.388
  121SOL     OW 2369   7.962   8.750   2.994
  121SOL    HW1 2370   7.881   8.792   2.965
  121SOL    HW2 2371   8.028   8.780   2.931
  122SOL     OW 2372   4.134   0.994   2.644
  122SOL    HW1 2373   4.093   1.043   2.715
  122SOL    HW2 2374   4.206   0.947   2.686
  123SOL     OW 2375   0.554   3.212   9.079
  123SOL    HW1 2376   0.486   3.184   9.018
  123SOL    HW2 2377   0.600   3.282   9.033
  124SOL     OW 2378   2.436   5.035  11.097
  124SOL    HW1 2379   2.413   5.004  11.009
  124SOL    HW2 2380   2.427   5.130  11.092
  125SOL     OW 2381  10.494   2.436   9.790
  125SOL    HW1 2382  10.514   2.447   9.883
  125SOL    HW2 2383  10.399   2.424   9.787
  126SOL     OW 2384   7.174   9.624   1.745
  126SOL    HW1 2385   7.235   9.658   1.680
  126SOL    HW2 2386   7.229   9.574   1.805
  127SOL     OW 2387   2.630   3.646  10.524
  127SOL    HW1 2388   2.658   3.727  10.482
  127SOL    HW2 2389   2.656   3.655  10.615
  128SOL     OW 2390   9.730   1.767   6.466
  128SOL    HW1 2391   9.652   1.813   6.496
  128SOL    HW2 2392   9.796   1.784   6.532
  129SOL     OW 2393   2.530   5.159   2.311
  129SOL    HW1 2394   2.586   5.221   2.356
  129SOL    HW2 2395   2.588   5.115   2.249
  130SOL     OW 2396   7.432   3.809   9.825
  130SOL    HW1 2397   7.423   3.796   9.919
  130SOL    HW2 2398   7.500   3.876   9.816
  131SOL     OW 2399   3.140   0.482   6.009
  131SOL    HW1 2400   3.101   0.437   6.084
  131SOL    HW2 2401   3.075   0.474   5.939
  132SOL     OW 2402   4.592   2.702   4.979
  132SOL    HW1 2403   4.516   2.708   4.921
  132SOL    HW2 2404   4.585   2.778   5.036
  133SOL     OW 2405   9.083  10.144   1.647
  133SOL    HW1 2406   8.989  10.133   1.662
  133SOL    HW2 2407   9.102  10.084   1.574
  134SOL     OW 2408   2.232   4.890   1.211
  134SOL    HW1 2409   2.223   4.971   1.260
  134SOL    HW2 2410   2.310   4.848   1.248
  135SOL     OW 2411   6.626   4.240   1.833
  135SOL    HW1 2412   6.598   4.230   1.924
  135SOL    HW2 2413   6.635   4.150   1.801
  136SOL     OW 2414   9.041   2.757  10.327
  136SOL    HW1 2415   9.064   2.702  10.251
  136SOL    HW2 2416   9.117   2.750  10.385
  137SOL     OW 2417   5.173  10.760   0.952
  137SOL    HW1 2418   5.143  10.670   0.942
  137SOL    HW2 2419   5.147  10.803   0.870
  138SOL     OW 2420   3.181   6.985  -0.003
  138SOL    HW1 2421   3.253   6.923   0.010
  138SOL    HW2 2422   3.125   6.973   0.074
  139SOL     OW 2423   5.326   1.632   4.716
  139SOL    HW1 2424   5.395   1.618   4.650
  139SOL    HW2 2425   5.372   1.666   4.792
  140SOL     OW 2426   3.171   5.036   3.609
  140SOL    HW1 2427   3.159   5.061   3.700
  140SOL    HW2 2428   3.177   5.119   3.562
  141SOL     OW 2429   6.036   0.562  10.456
  141SOL    HW1 2430   6.108   0.622  10.439
  141SOL    HW2 2431   6.076   0.475  10.453
  142SOL     OW 2432   3.676   8.172   2.031
  142SOL    HW1 2433   3.724   8.235   1.977
  142SOL    HW2 2434   3.708   8.187   2.120
  143SOL     OW 2435   9.744   8.107   2.264
  143SOL    HW1 2436   9.651   8.128   2.272
  143SOL    HW2 2437   9.783   8.136   2.346
  144SOL     OW 2438   0.330   8.002   2.370
  144SOL    HW1 2439   0.334   7.950   2.289
  144SOL    HW2 2440   0.312   8.091   2.340
  145SOL     OW 2441  10.018   2.479   2.773
  145SOL    HW1 2442  10.065   2.404   2.736
  145SOL    HW2 2443  10.016   2.462   2.867
  146SOL     OW 2444   9.077  10.271   8.512
  146SOL    HW1 2445   9.079  10.293   8.605
  146SOL    HW2 2446   8.984  10.269   8.490
  147SOL     OW 2447   4.819   4.109   7.713
  147SOL    HW1 2448   4.740   4.158   7.692
  147SOL    HW2 2449   4.890   4.157   7.670
  148SOL     OW 2450  10.957   9.362   0.514
  148SOL    HW1 2451  10.879   9.350   0.460
  148SOL    HW2 2452  11.029   9.368   0.451
  149SOL     OW 2453   4.948   9.531   1.349
  149SOL    HW1 2454   5.028   9.548   1.399
  149SOL    HW2 2455   4.877   9.564   1.404
  150SOL     OW 2456   6.110   0.060   7.322
  150SOL    HW1 2457   6.165  -0.003   7.369
  150SOL    HW2 2458   6.047   0.091   7.387
  151SOL     OW 2459   9.862  11.070   2.146
  151SOL    HW1 2460   9.780  11.077   2.194
  151SOL    HW2 2461   9.876  11.158   2.110
  152SOL     OW 2462   5.193   7.999   4.288
  152SOL    HW1 2463   5.205   7.904   4.292
  152SOL    HW2 2464   5.194   8.019   4.194
  153SOL     OW 2465  10.419   1.036  10.395
  153SOL    HW1 2466  10.503   1.047  10.350
  153SOL    HW2 2467  10.354   1.033  10.324
  154SOL     OW 2468  10.007  10.874   2.020
  154SOL    HW1 2469   9.950  10.934   2.068
  154SOL    HW2 2470  10.090  10.921   2.011
  155SOL     OW 2471   2.630   1.528   1.305
  155SOL    HW1 2472   2.645   1.573   1.388
  155SOL    HW2 2473   2.540   1.497   1.310
  156SOL     OW 2474   1.662   8.887   1.685
  156SOL    HW1 2475   1.757   8.902   1.688
  156SOL    HW2 2476   1.627   8.962   1.637
  157SOL     OW 2477   8.087   1.316   0.852
  157SOL    HW1 2478   8.018   1.256   0.823
  157SOL    HW2 2479   8.164   1.290   0.801
  158SOL     OW 2480   3.676   0.771   9.782
  158SOL    HW1 2481   3.676   0.847   9.839
  158SOL    HW2 2482   3.654   0.698   9.839
  159SOL     OW 2483   1.204   0.412   8.377
  159SOL    HW1 2484   1.262   0.466   8.430
  159SOL    HW2 2485   1.117   0.449   8.391
  160SOL     OW 2486   0.322   9.800   7.905
  160SOL    HW1 2487   0.252   9.735   7.916
  160SOL    HW2 2488   0.375   9.766   7.832
  161SOL     OW 2489   1.411   4.514   5.048
  161SOL    HW1 2490   1.318   4.509   5.028
  161SOL    HW2 2491   1.432   4.607   5.041
  162SOL     OW 2492   1.250   0.924   1.316
  162SOL    HW1 2493   1.319   0.894   1.375
  162SOL    HW2 2494   1.191   0.849   1.308
  163SOL     OW 2495   8.233   7.197   9.885
  163SOL    HW1 2496   8.267   7.279   9.850
  163SOL    HW2 2497   8.142   7.216   9.906
  164SOL     OW 2498   0.430   0.994  10.312
  164SOL    HW1 2499   0.432   0.903  10.280
  164SOL    HW2 2500   0.389   0.988  10.398
  165SOL     OW 2501   5.533   6.317  10.542
  165SOL    HW1 2502   5.525   6.406  10.509
  165SOL    HW2 2503   5.444   6.293  10.568
  166SOL     OW 2504   3.210   4.202   0.337
  166SOL    HW1 2505   3.268   4.126   0.343
  166SOL    HW2 2506   3.198   4.215   0.243
  167SOL     OW 2507   9.961   4.748   9.745
  167SOL    HW1 2508   9.964   4.781   9.655
  167SOL    HW2 2509   9.901   4.807   9.790
  168SOL     OW 2510   8.572   0.588   0.939
  168SOL    HW1 2511   8.580   0.580   0.844
  168SOL    HW2 2512   8.657   0.560   0.973
  169SOL     OW 2513  10.040   0.180   4.916
  169SOL    HW1 2514  10.132   0.207   4.920
  169SOL    HW2 2515  10.017   0.188   4.823
  170SOL     OW 2516   2.937   0.899   3.326
  170SOL    HW1 2517   2.845   0.922   3.336
  170SOL    HW2 2518   2.937   0.826   3.263
  171SOL     OW 2519   3.307  10.171   0.405
  171SOL    HW1 2520   3.379  10.207   0.353
  171SOL    HW2 2521   3.253  10.125   0.341
  172SOL     OW 2522   5.215  10.552   7.705
  172SOL    HW1 2523   5.279  10.583   7.641
  172SOL    HW2 2524   5.237  10.598   7.786
  173SOL     OW 2525   0.733   4.573   4.167
  173SOL    HW1 2526   0.812   4.555   4.115
  173SOL    HW2 2527   0.730   4.668   4.174
  174SOL     OW 2528   3.829   9.735  10.118
  174SOL    HW1 2529   3.842   9.754  10.025
  174SOL    HW2 2530   3.907   9.686  10.144
  175SOL     OW 2531   7.857   7.767   2.197
  175SOL    HW1 2532   7.768   7.796   2.215
  175SOL    HW2 2533   7.869   7.689   2.251
  176SOL     OW 2534   4.779   7.956   9.991
  176SOL    HW1 2535   4.802   7.890  10.056
  176SOL    HW2 2536   4.824   8.035  10.020
  177SOL     OW 2537   5.699   1.799   6.700
  177SOL    HW1 2538   5.795   1.802   6.701
  177SOL    HW2 2539   5.676   1.824   6.610
  178SOL     OW 2540   0.985   4.742   7.756
  178SOL    HW1 2541   0.957   4.806   7.690
  178SOL    HW2 2542   0.912   4.680   7.761
  179SOL     OW 2543   7.792   0.540  10.536
  179SOL    HW1 2544   7.823   0.499  10.617
  179SOL    HW2 2545   7.743   0.471  10.491
  180SOL     OW 2546   3.524   3.731   1.401
  180SOL    HW1 2547   3.536   3.787   1.324
  180SOL    HW2 2548   3.565   3.779   1.473
  181SOL     OW 2549   3.367  10.565   8.252
  181SOL    HW1 2550   3.347  10.601   8.165
  181SOL    HW2 2551   3.355  10.639   8.312
  182SOL     OW 2552   2.255   5.157   0.936
  182SOL    HW1 2553   2.245   5.153   1.031
  182SOL    HW2 2554   2.350   5.163   0.922
  183SOL     OW 2555   4.814   1.039   7.906
  183SOL    HW1 2556   4.768   1.122   7.918
  183SOL    HW2 2557   4.843   1.015   7.994
  184SOL     OW 2558   2.523   7.114   9.313
  184SOL    HW1 2559   2.447   7.170   9.296
  184SOL    HW2 2560   2.525   7.105   9.408
  185SOL     OW 2561   3.511  10.577   3.254
  185SOL    HW1 2562   3.423  10.586   3.291
  185SOL    HW2 2563   3.547  10.499   3.296
  186SOL     OW 2564   4.455  10.794   8.709
  186SOL    HW1 2565   4.395  10.828   8.642
  186SOL    HW2 2566   4.514  10.736   8.661
  187SOL     OW 2567   0.250   6.340   7.795
  187SOL    HW1 2568   0.344   6.326   7.800
  187SOL    HW2 2569   0.221   6.340   7.886
  188SOL     OW 2570   1.618   9.318   1.302
  188SOL    HW1 2571   1.709   9.295   1.285
  188SOL    HW2 2572   1.573   9.300   1.219
  189SOL     OW 2573   2.723   7.438   5.463
  189SOL    HW1 2574   2.678   7.402   5.386
  189SOL    HW2 2575   2.749   7.526   5.436
  190SOL     OW 2576   5.153   9.368   4.557
  190SOL    HW1 2577   5.213   9.305   4.596
  190SOL    HW2 2578   5.121   9.420   4.630
  191SOL     OW 2579   4.235   5.817  10.678
  191SOL    HW1 2580   4.228   5.852  10.589
  191SOL    HW2 2581   4.318   5.852  10.711
  192SOL     OW 2582   1.316  10.731   6.971
  192SOL    HW1 2583   1.224  10.746   6.949
  192SOL    HW2 2584   1.365  10.772   6.899
  193SOL     OW 2585   6.088   9.633   6.090
  193SOL    HW1 2586   6.174   9.590   6.098
  193SOL    HW2 2587   6.061   9.651   6.180
  194SOL     OW 2588   9.418   9.060   2.142
  194SOL    HW1 2589   9.337   9.101   2.111
  194SOL    HW2 2590   9.389   8.992   2.203
  195SOL     OW 2591   5.401   0.324   0.223
  195SOL    HW1 2592   5.359   0.318   0.309
  195SOL    HW2 2593   5.459   0.248   0.219
  196SOL     OW 2594  10.230   7.162   6.115
  196SOL    HW1 2595  10.169   7.210   6.059
  196SOL    HW2 2596  10.317   7.185   6.081
  197SOL     OW 2597   3.754   6.323   4.654
  197SOL    HW1 2598   3.790   6.404   4.689
  197SOL    HW2 2599   3.750   6.337   4.559
  198SOL     OW 2600   1.800   0.754   1.468
  198SOL    HW1 2601   1.833   0.725   1.382
  198SOL    HW2 2602   1.707   0.732   1.466
  199SOL     OW 2603  10.475   8.977   7.846
  199SOL    HW1 2604  10.403   8.967   7.784
  199SOL    HW2 2605  10.540   8.913   7.817
  200SOL     OW 2606  10.783   8.550  10.625
  200SOL    HW1 2607  10.780   8.517  10.535
  200SOL    HW2 2608  10.752   8.477  10.678
  201SOL     OW 2609   1.078  10.387   1.856
  201SOL    HW1 2610   1.135  10.406   1.782
  201SOL    HW2 2611   1.118  10.311   1.898
  202SOL     OW 2612   3.590   0.576   3.925
  202SOL    HW1 2613   3.516   0.530   3.964
  202SOL    HW2 2614   3.554   0.618   3.847
  203SOL     OW 2615   0.998  11.101   1.992
  203SOL    HW1 2616   0.989  11.011   2.024
  203SOL    HW2 2617   1.014  11.153   2.070
  204SOL     OW 2618   1.802   2.490   7.458
  204SOL    HW1 2619   1.826   2.412   7.407
  204SOL    HW2 2620   1.707   2.485   7.465
  205SOL     OW 2621   1.766   9.059   3.770
  205SOL    HW1 2622   1.671   9.057   3.776
  205SOL    HW2 2623   1.796   9.017   3.850
  206SOL     OW 2624   7.166   1.820   2.343
  206SOL    HW1 2625   7.075   1.791   2.333
  206SOL    HW2 2626   7.216   1.738   2.351
  207SOL     OW 2627   1.600   8.040   6.852
  207SOL    HW1 2628   1.590   8.131   6.880
  207SOL    HW2 2629   1.615   8.045   6.757
  208SOL     OW 2630   1.210   5.232   4.717
  208SOL    HW1 2631   1.298   5.210   4.749
  208SOL    HW2 2632   1.185   5.309   4.767
  209SOL     OW 2633   7.231   7.481   3.151
  209SOL    HW1 2634   7.239   7.563   3.199
  209SOL    HW2 2635   7.197   7.506   3.065
  210SOL     OW 2636  10.029  10.469  10.714
  210SOL    HW1 2637   9.954  10.424  10.675
  210SOL    HW2 2638  10.010  10.471  10.807
  211SOL     OW 2639   0.320   4.852   1.558
  211SOL    HW1 2640   0.354   4.867   1.646
  211SOL    HW2 2641   0.250   4.916   1.548
  212SOL     OW 2642  10.719   8.908   1.888
  212SOL    HW1 2643  10.685   8.972   1.950
  212SOL    HW2 2644  10.804   8.943   1.861
  213SOL     OW 2645   8.412   7.276   3.242
  213SOL    HW1 2646   8.483   7.217   3.268
  213SOL    HW2 2647   8.369   7.231   3.169
  214SOL     OW 2648   0.560   3.959   4.688
  214SOL    HW1 2649   0.574   4.010   4.767
  214SOL    HW2 2650   0.475   3.988   4.655
  215SOL     OW 2651   2.711  11.085   1.799
  215SOL    HW1 2652   2.700  11.101   1.705
  215SOL    HW2 2653   2.749  11.166   1.832
  216SOL     OW 2654   2.275   2.702   4.394
  216SOL    HW1 2655   2.293   2.614   4.428
  216SOL    HW2 2656   2.283   2.692   4.299
  217SOL     OW 2657   7.293   0.197   0.979
  217SOL    HW1 2658   7.276   0.141   0.903
  217SOL    HW2 2659   7.288   0.286   0.944
  218SOL     OW 2660   1.064   6.729   6.092
  218SOL    HW1 2661   1.092   6.813   6.056
  218SOL    HW2 2662   1.137   6.701   6.147
  219SOL     OW 2663   3.679  10.696   6.513
  219SOL    HW1 2664   3.755  10.683   6.570
  219SOL    HW2 2665   3.637  10.610   6.509
  220SOL     OW 2666   1.776   1.456   0.090
  220SOL    HW1 2667   1.682   1.473   0.089
  220SOL    HW2 2668   1.790   1.388   0.024
  221SOL     OW 2669   9.474   4.976   1.418
  221SOL    HW1 2670   9.470   4.966   1.513
  221SOL    HW2 2671   9.538   5.046   1.404
  222SOL     OW 2672   8.713   7.784   9.932
  222SOL    HW1 2673   8.738   7.709   9.877
  222SOL    HW2 2674   8.745   7.860   9.884
  223SOL     OW 2675   4.310   9.861   6.439
  223SOL    HW1 2676   4.271   9.948   6.441
  223SOL    HW2 2677   4.322   9.842   6.346
  224SOL     OW 2678   9.738  10.106   4.288
  224SOL    HW1 2679   9.674  10.037   4.271
  224SOL    HW2 2680   9.753  10.102   4.382
  225SOL     OW 2681   4.749  10.926   4.061
  225SOL    HW1 2682   4.726  11.011   4.097
  225SOL    HW2 2683   4.671  10.872   4.074
  226SOL     OW 2684   0.076   3.878   8.898
  226SOL    HW1 2685   0.168   3.859   8.915
  226SOL    HW2 2686   0.048   3.929   8.974
  227SOL     OW 2687   8.772   1.923   6.902
  227SOL    HW1 2688   8.744   2.011   6.925
  227SOL    HW2 2689   8.691   1.875   6.886
  228SOL     OW 2690   4.441   2.019   3.252
  228SOL    HW1 2691   4.352   2.041   3.280
  228SOL    HW2 2692   4.447   1.924   3.264
  229SOL     OW 2693  11.048   1.737   9.892
  229SOL    HW1 2694  11.112   1.726   9.962
  229SOL    HW2 2695  10.965   1.712   9.931
  230SOL     OW 2696   2.179   9.338   7.672
  230SOL    HW1 2697   2.112   9.278   7.639
  230SOL    HW2 2698   2.204   9.389   7.595
  231SOL     OW 2699   5.945   3.052   1.886
  231SOL    HW1 2700   5.992   2.983   1.934
  231SOL    HW2 2701   5.974   3.133   1.926
  232SOL     OW 2702   9.682   3.935   0.576
  232SOL    HW1 2703   9.760   3.923   0.630
  232SOL    HW2 2704   9.653   4.024   0.595
  233SOL     OW 2705   3.746   9.096   1.635
  233SOL    HW1 2706   3.789   9.154   1.697
  233SOL    HW2 2707   3.680   9.151   1.593
  234SOL     OW 2708   2.004   2.287   2.165
  234SOL    HW1 2709   2.011   2.288   2.260
  234SOL    HW2 2710   1.930   2.229   2.147
  235SOL     OW 2711   2.868   1.549   8.272
  235SOL    HW1 2712   2.846   1.573   8.182
  235SOL    HW2 2713   2.951   1.593   8.289
  236SOL     OW 2714   6.364   7.550   0.558
  236SOL    HW1 2715   6.298   7.575   0.622
  236SOL    HW2 2716   6.323   7.480   0.507
  237SOL     OW 2717   7.135   7.357   9.649
  237SOL    HW1 2718   7.043   7.340   9.629
  237SOL    HW2 2719   7.133   7.416   9.723
  238SOL     OW 2720   6.803  10.900   9.924
  238SOL    HW1 2721   6.788  10.965   9.855
  238SOL    HW2 2722   6.881  10.852   9.895
  239SOL     OW 2723  10.769   5.578   5.115
  239SOL    HW1 2724  10.796   5.491   5.144
  239SOL    HW2 2725  10.851   5.625   5.100
  240SOL     OW 2726   4.460   1.693  10.189
  240SOL    HW1 2727   4.523   1.759  10.162
  240SOL    HW2 2728   4.379   1.717  10.144
  241SOL     OW 2729   0.884   2.477   0.099
  241SOL    HW1 2730   0.839   2.531   0.034
  241SOL    HW2 2731   0.973   2.512   0.102
  242SOL     OW 2732   9.639   1.860   0.207
  242SOL    HW1 2733   9.684   1.931   0.252
  242SOL    HW2 2734   9.564   1.901   0.164
  243SOL     OW 2735   5.814   2.611  10.249
  243SOL    HW1 2736   5.737   2.629  10.195
  243SOL    HW2 2737   5.888   2.624  10.189
  244SOL     OW 2738   1.446   9.386   4.406
  244SOL    HW1 2739   1.450   9.384   4.501
  244SOL    HW2 2740   1.538   9.387   4.378
  245SOL     OW 2741   5.599   9.743   4.711
  245SOL    HW1 2742   5.673   9.711   4.659
  245SOL    HW2 2743   5.584   9.832   4.679
  246SOL     OW 2744   3.578   6.464   8.087
  246SOL    HW1 2745   3.574   6.368   8.092
  246SOL    HW2 2746   3.633   6.489   8.161
  247SOL     OW 2747   9.051  10.220   0.710
  247SOL    HW1 2748   9.062  10.242   0.802
  247SOL    HW2 2749   9.014  10.298   0.670
  248SOL     OW 2750   8.401   4.048   1.986
  248SOL    HW1 2751   8.458   4.117   1.953
  248SOL    HW2 2752   8.447   4.013   2.062
  249SOL     OW 2753   1.891   9.228   4.121
  249SOL    HW1 2754   1.909   9.135   4.105
  249SOL    HW2 2755   1.975   9.271   4.106
  250SOL     OW 2756   1.374   6.077   9.295
  250SOL    HW1 2757   1.324   6.000   9.323
  250SOL    HW2 2758   1.309   6.147   9.291
  251SOL     OW 2759   0.054   6.337   4.636
  251SOL    HW1 2760   0.111   6.293   4.699
  251SOL    HW2 2761   0.005   6.266   4.594
  252SOL     OW 2762   2.596   8.840   9.022
  252SOL    HW1 2763   2.611   8.934   9.016
  252SOL    HW2 2764   2.668   8.801   8.971
  253SOL     OW 2765   1.012   8.801   6.348
  253SOL    HW1 2766   0.942   8.813   6.412
  253SOL    HW2 2767   1.091   8.832   6.392
  254SOL     OW 2768   3.025   5.845   1.652
  254SOL    HW1 2769   2.947   5.865   1.703
  254SOL    HW2 2770   3.097   5.848   1.715
  255SOL     OW 2771  10.767   7.453   8.786
  255SOL    HW1 2772  10.730   7.527   8.737
  255SOL    HW2 2773  10.774   7.484   8.876
  256SOL     OW 2774   3.833   2.487   1.227
  256SOL    HW1 2775   3.855   2.414   1.168
  256SOL    HW2 2776   3.740   2.503   1.211
  257SOL     OW 2777   7.113   9.556   4.244
  257SOL    HW1 2778   7.172   9.508   4.302
  257SOL    HW2 2779   7.034   9.502   4.241
  258SOL     OW 2780  10.790   4.584   4.641
  258SOL    HW1 2781  10.739   4.641   4.583
  258SOL    HW2 2782  10.867   4.560   4.589
  259SOL     OW 2783  10.357   1.119   2.058
  259SOL    HW1 2784  10.395   1.139   1.972
  259SOL    HW2 2785  10.371   1.198   2.110
  260SOL     OW 2786   4.504   5.710   4.389
  260SOL    HW1 2787   4.522   5.683   4.299
  260SOL    HW2 2788   4.410   5.725   4.391
  261SOL     OW 2789   2.937   4.542   9.862
  261SOL    HW1 2790   2.862   4.585   9.820
  261SOL    HW2 2791   3.014   4.582   9.821
  262SOL     OW 2792   2.204   4.505   3.011
  262SOL    HW1 2793   2.252   4.588   3.009
  262SOL    HW2 2794   2.253   4.448   2.951
  263SOL     OW 2795   2.027   9.318   3.370
  263SOL    HW1 2796   1.966   9.248   3.346
  263SOL    HW2 2797   2.023   9.379   3.296
  264SOL     OW 2798  10.178   0.392   2.476
  264SOL    HW1 2799  10.119   0.333   2.523
  264SOL    HW2 2800  10.266   0.358   2.494
  265SOL     OW 2801  10.789   5.420   7.131
  265SOL    HW1 2802  10.851   5.484   7.096
  265SOL    HW2 2803  10.839   5.371   7.196
  266SOL     OW 2804   4.736   0.674   5.069
  266SOL    HW1 2805   4.816   0.684   5.121
  266SOL    HW2 2806   4.666   0.667   5.134
  267SOL     OW 2807   9.584  10.386   2.255
  267SOL    HW1 2808   9.612  10.460   2.201
  267SOL    HW2 2809   9.655  10.375   2.318
  268SOL     OW 2810   2.964   2.646   4.989
  268SOL    HW1 2811   2.909   2.705   5.041
  268SOL    HW2 2812   3.044   2.695   4.973
  269SOL     OW 2813   3.395   3.878   2.545
  269SOL    HW1 2814   3.329   3.912   2.485
  269SOL    HW2 2815   3.465   3.943   2.543
  270SOL     OW 2816   2.945   3.793  10.730
  270SOL    HW1 2817   2.997   3.810  10.651
  270SOL    HW2 2818   2.988   3.718  10.771
  271SOL     OW 2819   1.402   0.208   7.243
  271SOL    HW1 2820   1.323   0.192   7.295
  271SOL    HW2 2821   1.447   0.279   7.289
  272SOL     OW 2822   0.884   2.204   3.679
  272SOL    HW1 2823   0.920   2.125   3.638
  272SOL    HW2 2824   0.874   2.266   3.607
  273SOL     OW 2825   6.608   1.766  10.813
  273SOL    HW1 2826   6.531   1.757  10.757
  273SOL    HW2 2827   6.679   1.725  10.762
  274SOL     OW 2828   7.926   2.225   2.238
  274SOL    HW1 2829   7.930   2.135   2.205
  274SOL    HW2 2830   7.950   2.218   2.330
  275SOL     OW 2831   7.198   8.422   2.972
  275SOL    HW1 2832   7.159   8.507   2.990
  275SOL    HW2 2833   7.136   8.378   2.913
  276SOL     OW 2834   4.482   0.866   3.204
  276SOL    HW1 2835   4.512   0.896   3.118
  276SOL    HW2 2836   4.555   0.885   3.263
  277SOL     OW 2837  10.245   9.341   2.562
  277SOL    HW1 2838  10.213   9.307   2.478
  277SOL    HW2 2839  10.264   9.262   2.613
  278SOL     OW 2840   8.577   7.088   7.502
  278SOL    HW1 2841   8.509   7.020   7.498
  278SOL    HW2 2842   8.657   7.043   7.475
  279SOL     OW 2843   9.257   4.584   6.419
  279SOL    HW1 2844   9.218   4.654   6.470
  279SOL    HW2 2845   9.262   4.510   6.479
  280SOL     OW 2846   3.299   5.724   0.679
  280SOL    HW1 2847   3.349   5.796   0.640
  280SOL    HW2 2848   3.350   5.698   0.756
  281SOL     OW 2849   8.447   2.915   5.348
  281SOL    HW1 2850   8.395   2.886   5.423
  281SOL    HW2 2851   8.397   2.987   5.310
  282SOL     OW 2852   3.516   1.026   7.961
  282SOL    HW1 2853   3.605   1.007   7.932
  282SOL    HW2 2854   3.464   1.025   7.880
  283SOL     OW 2855   6.333   1.288   0.945
  283SOL    HW1 2856   6.258   1.239   0.979
  283SOL    HW2 2857   6.409   1.232   0.965
  284SOL     OW 2858   1.548   7.568   0.144
  284SOL    HW1 2859   1.587   7.525   0.068
  284SOL    HW2 2860   1.608   7.640   0.164
  285SOL     OW 2861   6.349  10.749   0.013
  285SOL    HW1 2862   6.315  10.661  -0.005
  285SOL    HW2 2863   6.284  10.788   0.072
  286SOL     OW 2864   7.325   0.456   2.828
  286SOL    HW1 2865   7.294   0.517   2.761
  286SOL    HW2 2866   7.331   0.508   2.908
  287SOL     OW 2867  10.188   8.509   1.794
  287SOL    HW1 2868  10.139   8.505   1.876
  287SOL    HW2 2869  10.187   8.601   1.770
  288SOL     OW 2870   5.947   7.421   5.315
  288SOL    HW1 2871   6.013   7.385   5.374
  288SOL    HW2 2872   5.924   7.347   5.258
  289SOL     OW 2873   9.660   9.482   2.552
  289SOL    HW1 2874   9.645   9.500   2.459
  289SOL    HW2 2875   9.600   9.541   2.598
  290SOL     OW 2876   9.064   9.655   0.570
  290SOL    HW1 2877   9.135   9.715   0.592
  290SOL    HW2 2878   9.093   9.570   0.605
  291SOL     OW 2879  10.247   6.458   0.787
  291SOL    HW1 2880  10.261   6.502   0.871
  291SOL    HW2 2881  10.192   6.382   0.808
  292SOL     OW 2882   9.671   6.806  10.743
  292SOL    HW1 2883   9.700   6.846  10.825
  292SOL    HW2 2884   9.748   6.811  10.685
  293SOL     OW 2885  11.094   6.330   9.873
  293SOL    HW1 2886  11.104   6.351   9.966
  293SOL    HW2 2887  11.010   6.369   9.848
  294SOL     OW 2888   4.569   3.687   7.185
  294SOL    HW1 2889   4.657   3.681   7.148
  294SOL    HW2 2890   4.524   3.609   7.151
  295SOL     OW 2891  10.574   0.323  10.457
  295SOL    HW1 2892  10.619   0.266  10.519
  295SOL    HW2 2893  10.489   0.281  10.443
  296SOL     OW 2894   0.910   2.702   2.599
  296SOL    HW1 2895   0.922   2.725   2.507
  296SOL    HW2 2896   0.923   2.607   2.601
  297SOL     OW 2897   5.899   5.302   0.420
  297SOL    HW1 2898   5.848   5.224   0.441
  297SOL    HW2 2899   5.967   5.270   0.360
  298SOL     OW 2900   1.889   6.646   1.881
  298SOL    HW1 2901   1.870   6.553   1.865
  298SOL    HW2 2902   1.813   6.678   1.929
  299SOL     OW 2903  10.142   5.037   2.842
  299SOL    HW1 2904  10.188   5.066   2.763
  299SOL    HW2 2905  10.080   4.971   2.810
  300SOL     OW 2906   6.402   3.988   9.323
  300SOL    HW1 2907   6.470   3.984   9.390
  300SOL    HW2 2908   6.320   3.979   9.371
  301SOL     OW 2909   4.458  10.451   2.151
  301SOL    HW1 2910   4.463  10.372   2.097
  301SOL    HW2 2911   4.478  10.420   2.239
  302SOL     OW 2912   0.208   1.317   4.057
  302SOL    HW1 2913   0.121   1.332   4.018
  302SOL    HW2 2914   0.196   1.239   4.112
  303SOL     OW 2915   7.076   3.244   3.919
  303SOL    HW1 2916   7.008   3.260   3.854
  303SOL    HW2 2917   7.052   3.298   3.994
  304SOL     OW 2918   0.802   6.375   4.504
  304SOL    HW1 2919   0.842   6.424   4.575
  304SOL    HW2 2920   0.876   6.338   4.456
  305SOL     OW 2921  10.504   2.409   1.187
  305SOL    HW1 2922  10.452   2.333   1.214
  305SOL    HW2 2923  10.595   2.382   1.202
  306SOL     OW 2924   3.139   8.707   5.223
  306SOL    HW1 2925   3.225   8.748   5.211
  306SOL    HW2 2926   3.154   8.614   5.203
  307SOL     OW 2927   3.522   1.225   2.897
  307SOL    HW1 2928   3.476   1.277   2.962
  307SOL    HW2 2929   3.457   1.207   2.829
  308SOL     OW 2930   7.735   5.605   4.047
  308SOL    HW1 2931   7.789   5.562   4.113
  308SOL    HW2 2932   7.678   5.535   4.014
  309SOL     OW 2933   3.114   9.235   9.531
  309SOL    HW1 2934   3.181   9.169   9.549
  309SOL    HW2 2935   3.161   9.306   9.487
  310SOL     OW 2936   6.125   8.582   2.197
  310SOL    HW1 2937   6.041   8.542   2.220
  310SOL    HW2 2938   6.139   8.557   2.105
  311SOL     OW 2939  10.461   6.946   2.481
  311SOL    HW1 2940  10.479   7.014   2.416
  311SOL    HW2 2941  10.369   6.924   2.468
  312SOL     OW 2942   0.303   5.740   2.675
  312SOL    HW1 2943   0.267   5.765   2.590
  312SOL    HW2 2944   0.243   5.779   2.738
  313SOL     OW 2945   6.504   2.434   4.412
  313SOL    HW1 2946   6.568   2.450   4.342
  313SOL    HW2 2947   6.487   2.339   4.408
  314SOL     OW 2948   2.364   5.922   3.981
  314SOL    HW1 2949   2.388   5.908   3.889
  314SOL    HW2 2950   2.280   5.877   3.991
  315SOL     OW 2951   6.777   1.932   1.761
  315SOL    HW1 2952   6.804   1.927   1.669
  315SOL    HW2 2953   6.684   1.910   1.759
  316SOL     OW 2954   0.326   2.462   0.633
  316SOL    HW1 2955   0.367   2.446   0.718
  316SOL    HW2 2956   0.398   2.488   0.576
  317SOL     OW 2957   7.392   7.333   2.235
  317SOL    HW1 2958   7.375   7.398   2.302
  317SOL    HW2 2959   7.373   7.249   2.277
  318SOL     OW 2960  10.455   0.717   9.629
  318SOL    HW1 2961  10.361   0.708   9.645
  318SOL    HW2 2962  10.463   0.797   9.577
  319SOL     OW 2963   2.433   4.721  10.072
  319SOL    HW1 2964   2.494   4.780  10.115
  319SOL    HW2 2965   2.353   4.727  10.124
  320SOL     OW 2966  10.540  10.338   1.546
  320SOL    HW1 2967  10.488  10.406   1.503
  320SOL    HW2 2968  10.481  10.262   1.551
  321SOL     OW 2969   8.901   1.359   0.599
  321SOL    HW1 2970   8.825   1.405   0.564
  321SOL    HW2 2971   8.924   1.296   0.530
  322SOL     OW 2972   2.199   0.481   0.406
  322SOL    HW1 2973   2.237   0.433   0.479
  322SOL    HW2 2974   2.133   0.421   0.370
  323SOL     OW 2975   9.851   4.568   4.476
  323SOL    HW1 2976   9.928   4.616   4.505
  323SOL    HW2 2977   9.788   4.636   4.452
  324SOL     OW 2978   8.100   6.646   4.710
  324SOL    HW1 2979   8.122   6.570   4.655
  324SOL    HW2 2980   8.181   6.697   4.714
  325SOL     OW 2981  11.097   3.140   2.994
  325SOL    HW1 2982  11.170   3.143   2.931
  325SOL    HW2 2983  11.031   3.199   2.957
  326SOL     OW 2984   2.141   7.779   3.425
  326SOL    HW1 2985   2.102   7.800   3.340
  326SOL    HW2 2986   2.068   7.748   3.478
  327SOL     OW 2987   0.464   4.034   5.639
  327SOL    HW1 2988   0.453   4.048   5.545
  327SOL    HW2 2989   0.436   3.943   5.653
  328SOL     OW 2990   2.619   9.093   1.942
  328SOL    HW1 2991   2.641   9.002   1.923
  328SOL    HW2 2992   2.641   9.104   2.034
  329SOL     OW 2993   7.950   4.986   5.268
  329SOL    HW1 2994   8.004   4.987   5.189
  329SOL    HW2 2995   7.937   5.078   5.290
  330SOL     OW 2996   1.051   8.161   7.042
  330SOL    HW1 2997   0.993   8.210   7.100
  330SOL    HW2 2998   1.134   8.209   7.044
  331SOL     OW 2999   5.847   0.514   3.318
  331SOL    HW1 3000   5.873   0.429   3.354
  331SOL    HW2 3001   5.909   0.529   3.247
  332SOL     OW 3002  10.196   2.660   2.262
  332SOL    HW1 3003  10.144   2.624   2.334
  332SOL    HW2 3004  10.132   2.675   2.192
  333SOL     OW 3005   7.567   4.039  10.200
  333SOL    HW1 3006   7.652   4.000  10.178
  333SOL    HW2 3007   7.560   4.029  10.295
  334SOL     OW 3008   6.428   7.467   9.394
  334SOL    HW1 3009   6.511   7.513   9.384
  334SOL    HW2 3010   6.431   7.430   9.482
  335SOL     OW 3011   6.748   0.022   1.463
  335SOL    HW1 3012   6.776   0.111   1.485
  335SOL    HW2 3013   6.780   0.008   1.374
  336SOL     OW 3014   1.639   4.059   1.901
  336SOL    HW1 3015   1.699   4.114   1.951
  336SOL    HW2 3016   1.602   3.999   1.965
  337SOL     OW 3017  11.090   7.489   2.822
  337SOL    HW1 3018  11.089   7.539   2.740
  337SOL    HW2 3019  11.033   7.538   2.881
  338SOL     OW 3020   6.230   2.830   9.903
  338SOL    HW1 3021   6.148   2.808   9.858
  338SOL    HW2 3022   6.281   2.878   9.837
  339SOL     OW 3023   5.104   0.391   3.754
  339SOL    HW1 3024   5.040   0.327   3.720
  339SOL    HW2 3025   5.054   0.447   3.813
  340SOL     OW 3026   3.392   4.787   4.060
  340SOL    HW1 3027   3.319   4.724   4.062
  340SOL    HW2 3028   3.370   4.847   3.989
  341SOL     OW 3029   4.180   8.598   1.725
  341SOL    HW1 3030   4.212   8.688   1.729
  341SOL    HW2 3031   4.251   8.546   1.763
  342SOL     OW 3032   5.835   9.106  10.596
  342SOL    HW1 3033   5.739   9.104  10.597
  342SOL    HW2 3034   5.859   9.070  10.510
  343SOL     OW 3035   0.533  10.923   2.702
  343SOL    HW1 3036   0.525  10.840   2.655
  343SOL    HW2 3037   0.569  10.900   2.787
  344SOL     OW 3038   2.167   8.182  10.736
  344SOL    HW1 3039   2.078   8.191  10.703
  344SOL    HW2 3040   2.211   8.125  10.672
  345SOL     OW 3041   3.700   0.579   5.765
  345SOL    HW1 3042   3.670   0.490   5.746
  345SOL    HW2 3043   3.783   0.587   5.717
  346SOL     OW 3044   0.490   0.251   1.575
  346SOL    HW1 3045   0.559   0.311   1.602
  346SOL    HW2 3046   0.488   0.184   1.644
  347SOL     OW 3047  10.500   9.852   5.967
  347SOL    HW1 3048  10.495   9.899   5.884
  347SOL    HW2 3049  10.518   9.761   5.942
  348SOL     OW 3050   9.679   8.291   8.502
  348SOL    HW1 3051   9.677   8.196   8.513
  348SOL    HW2 3052   9.766   8.317   8.531
  349SOL     OW 3053   9.093   1.574   0.993
  349SOL    HW1 3054   9.014   1.532   0.959
  349SOL    HW2 3055   9.158   1.563   0.923
  350SOL     OW 3056   3.332   5.223   7.757
  350SOL    HW1 3057   3.356   5.230   7.664
  350SOL    HW2 3058   3.343   5.311   7.791
  351SOL     OW 3059  10.051   3.586   8.822
  351SOL    HW1 3060  10.034   3.492   8.830
  351SOL    HW2 3061   9.969   3.627   8.848
  352SOL     OW 3062   3.209   8.350   3.817
  352SOL    HW1 3063   3.277   8.388   3.762
  352SOL    HW2 3064   3.247   8.267   3.847
  353SOL     OW 3065   1.955   6.799   7.567
  353SOL    HW1 3066   2.037   6.803   7.616
  353SOL    HW2 3067   1.968   6.859   7.493
  354SOL     OW 3068   9.277   9.776   8.421
  354SOL    HW1 3069   9.250   9.863   8.393
  354SOL    HW2 3070   9.345   9.791   8.486
  355SOL     OW 3071   7.223   1.903   0.960
  355SOL    HW1 3072   7.209   1.914   1.054
  355SOL    HW2 3073   7.310   1.939   0.944
  356SOL     OW 3074   2.300   8.708   3.511
  356SOL    HW1 3075   2.394   8.707   3.492
  356SOL    HW2 3076   2.289   8.643   3.580
  357SOL     OW 3077   9.902   0.450   8.539
  357SOL    HW1 3078   9.852   0.401   8.473
  357SOL    HW2 3079   9.975   0.488   8.490
  358SOL     OW 3080   4.926   8.755   3.298
  358SOL    HW1 3081   4.918   8.812   3.221
  358SOL    HW2 3082   5.008   8.708   3.284
  359SOL     OW 3083  11.017   8.918   0.734
  359SOL    HW1 3084  11.084   8.933   0.800
  359SOL    HW2 3085  11.058   8.945   0.652
  360SOL     OW 3086   2.590   5.084   6.810
  360SOL    HW1 3087   2.643   5.163   6.819
  360SOL    HW2 3088   2.539   5.098   6.730
  361SOL     OW 3089   1.556   4.999   1.015
  361SOL    HW1 3090   1.465   5.026   1.021
  361SOL    HW2 3091   1.570   4.982   0.922
  362SOL     OW 3092  10.341   1.812   7.269
  362SOL    HW1 3093  10.332   1.818   7.364
  362SOL    HW2 3094  10.252   1.800   7.236
  363SOL     OW 3095   2.346  10.997   6.740
  363SOL    HW1 3096   2.349  10.913   6.786
  363SOL    HW2 3097   2.327  10.974   6.649
  364SOL     OW 3098   0.943   3.153   1.539
  364SOL    HW1 3099   0.859   3.143   1.495
  364SOL    HW2 3100   0.961   3.247   1.535
  365SOL     OW 3101   5.501   8.832   3.748
  365SOL    HW1 3102   5.438   8.871   3.809
  365SOL    HW2 3103   5.582   8.825   3.798
  366SOL     OW 3104  10.853  10.042  10.263
  366SOL    HW1 3105  10.769  10.027  10.219
  366SOL    HW2 3106  10.892  10.115  10.215
  367SOL     OW 3107  10.412   0.133   3.822
  367SOL    HW1 3108  10.488   0.106   3.770
  367SOL    HW2 3109  10.443   0.132   3.912
  368SOL     OW 3110   1.446   8.339   5.938
  368SOL    HW1 3111   1.512   8.354   6.005
  368SOL    HW2 3112   1.463   8.249   5.908
  369SOL     OW 3113   2.385   3.321   5.201
  369SOL    HW1 3114   2.388   3.313   5.296
  369SOL    HW2 3115   2.473   3.295   5.172
  370SOL     OW 3116   1.736   8.537  10.477
  370SOL    HW1 3117   1.764   8.551  10.567
  370SOL    HW2 3118   1.731   8.625  10.439
  371SOL     OW 3119   3.705   4.728   3.011
  371SOL    HW1 3120   3.788   4.747   3.055
  371SOL    HW2 3121   3.650   4.688   3.078
  372SOL     OW 3122   8.716  11.083   0.715
  372SOL    HW1 3123   8.795  11.040   0.746
  372SOL    HW2 3124   8.679  11.022   0.651
  373SOL     OW 3125   2.659   4.420  10.574
  373SOL    HW1 3126   2.699   4.505  10.558
  373SOL    HW2 3127   2.614   4.429  10.658
  374SOL     OW 3128   4.438   0.677   9.534
  374SOL    HW1 3129   4.439   0.611   9.464
  374SOL    HW2 3130   4.369   0.648   9.593
  375SOL     OW 3131   6.378  10.491   8.898
  375SOL    HW1 3132   6.376  10.402   8.932
  375SOL    HW2 3133   6.471  10.516   8.900
  376SOL     OW 3134   2.062   0.910   3.184
  376SOL    HW1 3135   2.054   0.962   3.264
  376SOL    HW2 3136   2.155   0.889   3.178
  377SOL     OW 3137   3.165   2.807   1.339
  377SOL    HW1 3138   3.125   2.889   1.366
  377SOL    HW2 3139   3.101   2.767   1.279
  378SOL     OW 3140   9.521   3.450   6.178
  378SOL    HW1 3141   9.547   3.458   6.086
  378SOL    HW2 3142   9.556   3.528   6.220
  379SOL     OW 3143   1.449   5.286   0.983
  379SOL    HW1 3144   1.527   5.317   0.936
  379SOL    HW2 3145   1.418   5.362   1.031
  380SOL     OW 3146   4.183   6.774   1.037
  380SOL    HW1 3147   4.226   6.775   1.122
  380SOL    HW2 3148   4.104   6.722   1.050
  381SOL     OW 3149  10.132   9.878   1.815
  381SOL    HW1 3150  10.124   9.833   1.899
  381SOL    HW2 3151  10.066   9.947   1.818
  382SOL     OW 3152   9.450   2.402   0.915
  382SOL    HW1 3153   9.517   2.357   0.863
  382SOL    HW2 3154   9.464   2.371   1.004
  383SOL     OW 3155   8.561   2.930   8.444
  383SOL    HW1 3156   8.526   3.018   8.454
  383SOL    HW2 3157   8.586   2.904   8.532
  384SOL     OW 3158   7.053   7.399   5.618
  384SOL    HW1 3159   7.092   7.312   5.607
  384SOL    HW2 3160   6.964   7.382   5.650
  385SOL     OW 3161   4.765   1.572   0.077
  385SOL    HW1 3162   4.732   1.627   0.148
  385SOL    HW2 3163   4.756   1.625  -0.001
  386SOL     OW 3164   5.371   8.119   7.348
  386SOL    HW1 3165   5.361   8.029   7.381
  386SOL    HW2 3166   5.323   8.173   7.410
  387SOL     OW 3167  10.647   7.278   5.049
  387SOL    HW1 3168  10.674   7.187   5.038
  387SOL    HW2 3169  10.630   7.309   4.960
  388SOL     OW 3170   0.769   5.617   2.510
  388SOL    HW1 3171   0.820   5.647   2.435
  388SOL    HW2 3172   0.755   5.695   2.563
  389SOL     OW 3173   3.632   2.138   9.558
  389SOL    HW1 3174   3.676   2.162   9.476
  389SOL    HW2 3175   3.579   2.214   9.580
  390SOL     OW 3176   7.469   6.886   8.919
  390SOL    HW1 3177   7.439   6.976   8.905
  390SOL    HW2 3178   7.428   6.859   9.001
  391SOL     OW 3179   9.748   3.405   3.576
  391SOL    HW1 3180   9.760   3.409   3.481
  391SOL    HW2 3181   9.756   3.495   3.605
  392SOL     OW 3182   3.635   4.291   5.635
  392SOL    HW1 3183   3.568   4.345   5.593
  392SOL    HW2 3184   3.691   4.353   5.681
  393SOL     OW 3185   9.241   2.193   3.647
  393SOL    HW1 3186   9.326   2.185   3.603
  393SOL    HW2 3187   9.178   2.155   3.585
  394SOL     OW 3188   9.388   9.380   3.373
  394SOL    HW1 3189   9.448   9.305   3.377
  394SOL    HW2 3190   9.301   9.341   3.365
  395SOL     OW 3191   5.651   4.510   3.265
  395SOL    HW1 3192   5.661   4.568   3.340
  395SOL    HW2 3193   5.562   4.525   3.234
  396SOL     OW 3194   1.075   7.614   5.662
  396SOL    HW1 3195   1.153   7.644   5.615
  396SOL    HW2 3196   1.109   7.550   5.725
  397SOL     OW 3197  10.019   6.147   1.865
  397SOL    HW1 3198   9.925   6.156   1.877
  397SOL    HW2 3199  10.057   6.174   1.948
  398SOL     OW 3200  11.016   1.250   7.340
  398SOL    HW1 3201  10.985   1.212   7.422
  398SOL    HW2 3202  10.958   1.324   7.324
  399SOL     OW 3203   6.484   5.603   7.428
  399SOL    HW1 3204   6.576   5.606   7.453
  399SOL    HW2 3205   6.482   5.545   7.351
  400SOL     OW 3206   8.114   9.851   3.578
  400SOL    HW1 3207   8.167   9.771   3.586
  400SOL    HW2 3208   8.178   9.920   3.560
  401SOL     OW 3209   0.855   4.775  10.557
  401SOL    HW1 3210   0.924   4.816  10.505
  401SOL    HW2 3211   0.795   4.738  10.492
  402SOL     OW 3212   1.072   0.705   0.555
  402SOL    HW1 3213   1.061   0.762   0.479
  402SOL    HW2 3214   1.165   0.712   0.577
  403SOL     OW 3215   2.274   3.060  10.962
  403SOL    HW1 3216   2.358   3.084  11.002
  403SOL    HW2 3217   2.270   2.964  10.971
  404SOL     OW 3218   1.256   9.955   1.089
  404SOL    HW1 3219   1.342   9.913   1.081
  404SOL    HW2 3220   1.194   9.882   1.094
  405SOL     OW 3221   3.918   9.363   2.143
  405SOL    HW1 3222   3.914   9.428   2.073
  405SOL    HW2 3223   3.856   9.394   2.208
  406SOL     OW 3224   6.022   0.023  10.441
  406SOL    HW1 3225   6.101  -0.031  10.435
  406SOL    HW2 3226   6.033   0.073  10.521
  407SOL     OW 3227   2.510   9.906   0.865
  407SOL    HW1 3228   2.560   9.881   0.787
  407SOL    HW2 3229   2.429   9.943   0.830
  408SOL     OW 3230  10.237   3.286   7.309
  408SOL    HW1 3231  10.226   3.371   7.266
  408SOL    HW2 3232  10.149   3.262   7.337
  409SOL     OW 3233   9.254   5.364  10.769
  409SOL    HW1 3234   9.246   5.319  10.684
  409SOL    HW2 3235   9.328   5.321  10.812
  410SOL     OW 3236   4.824   9.283   9.415
  410SOL    HW1 3237   4.751   9.221   9.415
  410SOL    HW2 3238   4.870   9.266   9.497
  411SOL     OW 3239   6.416  10.551   2.324
  411SOL    HW1 3240   6.355  10.616   2.290
  411SOL    HW2 3241   6.364  10.472   2.337
  412SOL     OW 3242   2.100   8.449   2.830
  412SOL    HW1 3243   2.113   8.453   2.924
  412SOL    HW2 3244   2.025   8.506   2.814
  413SOL     OW 3245   1.587   8.119   8.341
  413SOL    HW1 3246   1.632   8.088   8.262
  413SOL    HW2 3247   1.518   8.054   8.356
  414SOL     OW 3248  10.167   6.629   2.257
  414SOL    HW1 3249  10.184   6.589   2.171
  414SOL    HW2 3250  10.103   6.698   2.239
  415SOL     OW 3251   3.098   0.249   1.976
  415SOL    HW1 3252   3.095   0.155   1.997
  415SOL    HW2 3253   3.106   0.293   2.060
  416SOL     OW 3254   0.858  10.938   7.693
  416SOL    HW1 3255   0.807  10.858   7.682
  416SOL    HW2 3256   0.832  10.993   7.619
  417SOL     OW 3257   4.906   1.059  10.173
  417SOL    HW1 3258   4.981   1.115  10.193
  417SOL    HW2 3259   4.941   0.970  10.174
  418SOL     OW 3260   8.137   7.570   4.076
  418SOL    HW1 3261   8.072   7.639   4.064
  418SOL    HW2 3262   8.202   7.586   4.007
  419SOL     OW 3263  10.497  10.983   5.548
  419SOL    HW1 3264  10.559  10.968   5.477
  419SOL    HW2 3265  10.498  10.902   5.599
  420SOL     OW 3266   1.834   8.982   1.924
  420SOL    HW1 3267   1.914   9.021   1.890
  420SOL    HW2 3268   1.772   9.055   1.930
  421SOL     OW 3269   0.986   4.898   0.265
  421SOL    HW1 3270   1.027   4.983   0.249
  421SOL    HW2 3271   0.901   4.903   0.220
  422SOL     OW 3272  10.634   5.129   3.044
  422SOL    HW1 3273  10.551   5.087   3.065
  422SOL    HW2 3274  10.639   5.126   2.948
  423SOL     OW 3275   6.657   4.619   1.894
  423SOL    HW1 3276   6.686   4.640   1.982
  423SOL    HW2 3277   6.588   4.553   1.906
  424SOL     OW 3278   2.282   4.713   1.949
  424SOL    HW1 3279   2.230   4.647   1.903
  424SOL    HW2 3280   2.227   4.791   1.948
  425SOL     OW 3281   8.930  11.020   1.401
  425SOL    HW1 3282   8.918  10.930   1.371
  425SOL    HW2 3283   8.971  11.064   1.327
  426SOL     OW 3284  11.081  10.859   5.589
  426SOL    HW1 3285  10.996  10.870   5.546
  426SOL    HW2 3286  11.077  10.916   5.665
  427SOL     OW 3287   5.408   9.152   9.330
  427SOL    HW1 3288   5.360   9.152   9.247
  427SOL    HW2 3289   5.500   9.149   9.303
  428SOL     OW 3290   4.760   3.494   2.448
  428SOL    HW1 3291   4.815   3.546   2.389
  428SOL    HW2 3292   4.717   3.430   2.390
  429SOL     OW 3293   6.838   0.149   6.931
  429SOL    HW1 3294   6.844   0.096   7.010
  429SOL    HW2 3295   6.793   0.092   6.868
  430SOL     OW 3296   9.615   2.668   2.383
  430SOL    HW1 3297   9.641   2.685   2.292
  430SOL    HW2 3298   9.697   2.668   2.431
  431SOL     OW 3299   1.579   6.462   6.842
  431SOL    HW1 3300   1.599   6.398   6.773
  431SOL    HW2 3301   1.533   6.532   6.796
  432SOL     OW 3302   4.800   0.371   4.107
  432SOL    HW1 3303   4.727   0.425   4.137
  432SOL    HW2 3304   4.771   0.337   4.022
  433SOL     OW 3305   0.732   3.461   7.921
  433SOL    HW1 3306   0.714   3.413   7.840
  433SOL    HW2 3307   0.804   3.520   7.898
  434SOL     OW 3308  10.827   4.532   6.003
  434SOL    HW1 3309  10.746   4.481   6.010
  434SOL    HW2 3310  10.888   4.473   5.957
  435SOL     OW 3311   7.426   5.633   0.538
  435SOL    HW1 3312   7.510   5.643   0.583
  435SOL    HW2 3313   7.449   5.618   0.446
  436SOL     OW 3314   5.267   6.553   5.821
  436SOL    HW1 3315   5.276   6.586   5.910
  436SOL    HW2 3316   5.176   6.523   5.815
  437SOL     OW 3317   1.250   5.560   6.181
  437SOL    HW1 3318   1.207   5.559   6.095
  437SOL    HW2 3319   1.219   5.640   6.223
  438SOL     OW 3320   5.582   2.285   3.502
  438SOL    HW1 3321   5.616   2.329   3.424
  438SOL    HW2 3322   5.489   2.274   3.485
  439SOL     OW 3323   5.104   3.736   9.051
  439SOL    HW1 3324   5.180   3.712   9.105
  439SOL    HW2 3325   5.140   3.748   8.963
  440SOL     OW 3326   9.409   7.990   5.850
  440SOL    HW1 3327   9.464   7.920   5.813
  440SOL    HW2 3328   9.320   7.955   5.845
  441SOL     OW 3329  10.239   3.304   7.620
  441SOL    HW1 3330  10.318   3.330   7.666
  441SOL    HW2 3331  10.261   3.314   7.527
  442SOL     OW 3332   6.472   1.099   1.505
  442SOL    HW1 3333   6.399   1.154   1.477
  442SOL    HW2 3334   6.544   1.160   1.519
  443SOL     OW 3335  10.172   1.822   3.158
  443SOL    HW1 3336  10.163   1.803   3.064
  443SOL    HW2 3337  10.130   1.907   3.169
  444SOL     OW 3338   2.029  10.040   8.624
  444SOL    HW1 3339   2.105  10.003   8.669
  444SOL    HW2 3340   2.020  10.128   8.660
  445SOL     OW 3341   3.318   2.361   8.773
  445SOL    HW1 3342   3.242   2.325   8.818
  445SOL    HW2 3343   3.361   2.285   8.734
  446SOL     OW 3344   1.696   0.657   4.835
  446SOL    HW1 3345   1.642   0.730   4.865
  446SOL    HW2 3346   1.714   0.677   4.743
  447SOL     OW 3347   0.937   0.283   5.299
  447SOL    HW1 3348   0.897   0.223   5.236
  447SOL    HW2 3349   0.904   0.254   5.384
  448SOL     OW 3350   1.009   3.364   1.352
  448SOL    HW1 3351   1.048   3.289   1.307
  448SOL    HW2 3352   1.084   3.410   1.390
  449SOL     OW 3353   1.793   9.684   2.498
  449SOL    HW1 3354   1.713   9.734   2.513
  449SOL    HW2 3355   1.801   9.680   2.402
  450SOL     OW 3356   4.163   7.202   4.949
  450SOL    HW1 3357   4.213   7.142   5.004
  450SOL    HW2 3358   4.129   7.268   5.009
  451SOL     OW 3359   2.011   4.506   1.437
  451SOL    HW1 3360   1.928   4.460   1.449
  451SOL    HW2 3361   1.989   4.582   1.383
  452SOL     OW 3362   7.431   0.322   1.391
  452SOL    HW1 3363   7.490   0.315   1.466
  452SOL    HW2 3364   7.407   0.231   1.371
  453SOL     OW 3365   1.851  10.137   5.217
  453SOL    HW1 3366   1.842  10.069   5.150
  453SOL    HW2 3367   1.768  10.185   5.214
  454SOL     OW 3368   6.001   4.298  10.048
  454SOL    HW1 3369   5.973   4.308  10.139
  454SOL    HW2 3370   6.069   4.364  10.036
  455SOL     OW 3371   1.093   4.804   9.784
  455SOL    HW1 3372   1.094   4.836   9.874
  455SOL    HW2 3373   1.044   4.722   9.788
  456SOL     OW 3374   4.732   7.956  10.309
  456SOL    HW1 3375   4.706   7.967  10.400
  456SOL    HW2 3376   4.747   7.862  10.300
  457SOL     OW 3377   5.133   6.419   1.101
  457SOL    HW1 3378   5.124   6.393   1.192
  457SOL    HW2 3379   5.141   6.514   1.103
  458SOL     OW 3380   3.133  10.408   6.371
  458SOL    HW1 3381   3.199  10.473   6.397
  458SOL    HW2 3382   3.157  10.384   6.281
  459SOL     OW 3383   3.030   0.455   3.149
  459SOL    HW1 3384   3.038   0.501   3.232
  459SOL    HW2 3385   2.997   0.368   3.172
  460SOL     OW 3386  10.582   6.389   3.973
  460SOL    HW1 3387  10.631   6.355   3.897
  460SOL    HW2 3388  10.566   6.481   3.952
  461SOL     OW 3389  10.693   0.778  10.710
  461SOL    HW1 3390  10.639   0.852  10.684
  461SOL    HW2 3391  10.631   0.714  10.747
  462SOL     OW 3392   1.443   6.267   9.968
  462SOL    HW1 3393   1.533   6.259   9.937
  462SOL    HW2 3394   1.423   6.181  10.005
  463SOL     OW 3395   2.667   1.000   6.345
  463SOL    HW1 3396   2.597   0.939   6.322
  463SOL    HW2 3397   2.729   0.993   6.272
  464SOL     OW 3398   2.225   7.388   4.272
  464SOL    HW1 3399   2.291   7.456   4.262
  464SOL    HW2 3400   2.191   7.374   4.183
  465SOL     OW 3401   2.458  10.433   2.229
  465SOL    HW1 3402   2.544  10.407   2.197
  465SOL    HW2 3403   2.416  10.351   2.256
  466SOL     OW 3404   2.677  10.647   1.076
  466SOL    HW1 3405   2.770  10.643   1.099
  466SOL    HW2 3406   2.644  10.725   1.120
  467SOL     OW 3407   2.203   8.052   3.946
  467SOL    HW1 3408   2.163   7.967   3.927
  467SOL    HW2 3409   2.239   8.081   3.862
  468SOL     OW 3410   1.487   8.132   8.055
  468SOL    HW1 3411   1.548   8.061   8.077
  468SOL    HW2 3412   1.504   8.150   7.962
  469SOL     OW 3413   0.018   0.425   8.783
  469SOL    HW1 3414   0.100   0.425   8.833
  469SOL    HW2 3415  -0.009   0.333   8.782
  470SOL     OW 3416  10.697   4.430   7.321
  470SOL    HW1 3417  10.792   4.432   7.333
  470SOL    HW2 3418  10.678   4.506   7.266
  471SOL     OW 3419   3.059  10.671   5.093
  471SOL    HW1 3420   3.052  10.577   5.108
  471SOL    HW2 3421   3.055  10.680   4.997
  472SOL     OW 3422  10.719   2.703   4.299
  472SOL    HW1 3423  10.780   2.752   4.354
  472SOL    HW2 3424  10.683   2.768   4.239
  473SOL     OW 3425   1.927  10.197   0.243
  473SOL    HW1 3426   1.970  10.184   0.158
  473SOL    HW2 3427   1.997  10.185   0.307
  474SOL     OW 3428   0.906   1.762   1.539
  474SOL    HW1 3429   0.932   1.687   1.592
  474SOL    HW2 3430   0.935   1.838   1.589
  475SOL     OW 3431   2.324   2.762   0.517
  475SOL    HW1 3432   2.246   2.770   0.572
  475SOL    HW2 3433   2.306   2.818   0.441
  476SOL     OW 3434   7.351   3.741   7.813
  476SOL    HW1 3435   7.334   3.832   7.791
  476SOL    HW2 3436   7.446   3.736   7.825
  477SOL     OW 3437   7.105   2.276   8.551
  477SOL    HW1 3438   7.173   2.279   8.618
  477SOL    HW2 3439   7.064   2.190   8.562
  478SOL     OW 3440   3.367   2.521  10.988
  478SOL    HW1 3441   3.335   2.608  11.008
  478SOL    HW2 3442   3.305   2.461  11.030
  479SOL     OW 3443  10.591   2.428   0.762
  479SOL    HW1 3444  10.553   2.391   0.682
  479SOL    HW2 3445  10.625   2.513   0.735
  480SOL     OW 3446  10.885   1.382   6.880
  480SOL    HW1 3447  10.864   1.473   6.899
  480SOL    HW2 3448  10.891   1.340   6.965
  481SOL     OW 3449   0.803   2.603   6.893
  481SOL    HW1 3450   0.764   2.580   6.808
  481SOL    HW2 3451   0.813   2.519   6.938
  482SOL     OW 3452   7.747  10.526   7.281
  482SOL    HW1 3453   7.700  10.593   7.231
  482SOL    HW2 3454   7.717  10.443   7.243
  483SOL     OW 3455  11.070   9.212   3.873
  483SOL    HW1 3456  11.139   9.202   3.807
  483SOL    HW2 3457  10.990   9.184   3.828
  484SOL     OW 3458   9.749   6.196   6.484
  484SOL    HW1 3459   9.725   6.103   6.491
  484SOL    HW2 3460   9.699   6.239   6.553
  485SOL     OW 3461  10.078   1.226   1.042
  485SOL    HW1 3462  10.068   1.269   0.957
  485SOL    HW2 3463  10.106   1.295   1.101
  486SOL     OW 3464   1.229   5.802   4.658
  486SOL    HW1 3465   1.193   5.724   4.615
  486SOL    HW2 3466   1.322   5.800   4.636
  487SOL     OW 3467  10.808   8.097   3.523
  487SOL    HW1 3468  10.813   8.185   3.559
  487SOL    HW2 3469  10.807   8.109   3.428
  488SOL     OW 3470   6.597   6.083   0.905
  488SOL    HW1 3471   6.601   6.148   0.835
  488SOL    HW2 3472   6.688   6.070   0.931
  489SOL     OW 3473   2.047  10.866   6.360
  489SOL    HW1 3474   1.962  10.827   6.379
  489SOL    HW2 3475   2.073  10.827   6.276
  490SOL     OW 3476   8.471  11.058   2.747
  490SOL    HW1 3477   8.500  10.975   2.708
  490SOL    HW2 3478   8.383  11.040   2.780
  491SOL     OW 3479  10.937   5.150  11.037
  491SOL    HW1 3480  10.983   5.234  11.039
  491SOL    HW2 3481  10.984   5.098  10.972
  492SOL     OW 3482   0.215   8.988   5.213
  492SOL    HW1 3483   0.209   8.992   5.117
  492SOL    HW2 3484   0.215   8.894   5.233
  493SOL     OW 3485   1.238   3.231   5.964
  493SOL    HW1 3486   1.225   3.155   5.907
  493SOL    HW2 3487   1.331   3.253   5.953
  494SOL     OW 3488   1.520   5.993   7.335
  494SOL    HW1 3489   1.458   5.925   7.307
  494SOL    HW2 3490   1.478   6.034   7.410
  495SOL     OW 3491   3.494  10.346   3.954
  495SOL    HW1 3492   3.541  10.428   3.971
  495SOL    HW2 3493   3.418  10.348   4.012
  496SOL     OW 3494   2.919   5.247   5.312
  496SOL    HW1 3495   2.964   5.320   5.355
  496SOL    HW2 3496   2.826   5.270   5.316
  497SOL     OW 3497   8.498   7.413   3.989
  497SOL    HW1 3498   8.471   7.476   3.922
  497SOL    HW2 3499   8.416   7.387   4.031
  498SOL     OW 3500  11.016   2.390   0.883
  498SOL    HW1 3501  11.012   2.485   0.893
  498SOL    HW2 3502  11.074   2.376   0.808
  499SOL     OW 3503  10.817   5.053   6.500
  499SOL    HW1 3504  10.726   5.061   6.471
  499SOL    HW2 3505  10.860   5.004   6.430
  500SOL     OW 3506   2.760   8.831   4.272
  500SOL    HW1 3507   2.756   8.793   4.359
  500SOL    HW2 3508   2.782   8.923   4.286
  501SOL     OW 3509  10.459   7.024   0.170
  501SOL    HW1 3510  10.477   6.933   0.145
  501SOL    HW2 3511  10.541   7.054   0.209
  502SOL     OW 3512   2.079  10.953   0.766
  502SOL    HW1 3513   2.164  10.996   0.777
  502SOL    HW2 3514   2.024  10.990   0.835
  503SOL     OW 3515   7.909   0.255   0.926
  503SOL    HW1 3516   7.973   0.206   0.978
  503SOL    HW2 3517   7.962   0.316   0.875
  504SOL     OW 3518   4.327   7.043  10.879
  504SOL    HW1 3519   4.271   6.977  10.919
  504SOL    HW2 3520   4.380   6.993  10.816
  505SOL     OW 3521   2.199   5.465  11.041
  505SOL    HW1 3522   2.150   5.545  11.058
  505SOL    HW2 3523   2.134   5.402  11.010
  506SOL     OW 3524   4.564   9.678   4.704
  506SOL    HW1 3525   4.654   9.649   4.717
  506SOL    HW2 3526   4.567   9.772   4.717
  507SOL     OW 3527   7.560   9.245   1.866
  507SOL    HW1 3528   7.511   9.277   1.941
  507SOL    HW2 3529   7.610   9.320   1.835
  508SOL     OW 3530   9.338  10.306   3.820
  508SOL    HW1 3531   9.416  10.360   3.834
  508SOL    HW2 3532   9.300  10.339   3.738
  509SOL     OW 3533   1.771   8.056   9.314
  509SOL    HW1 3534   1.863   8.050   9.341
  509SOL    HW2 3535   1.769   8.017   9.226
  510SOL     OW 3536   7.926   6.158   1.323
  510SOL    HW1 3537   7.852   6.201   1.366
  510SOL    HW2 3538   7.988   6.229   1.305
  511SOL     OW 3539   9.352   9.597   4.516
  511SOL    HW1 3540   9.293   9.631   4.449
  511SOL    HW2 3541   9.374   9.509   4.486
  512SOL     OW 3542   0.795   6.582   0.650
  512SOL    HW1 3543   0.887   6.608   0.646
  512SOL    HW2 3544   0.797   6.496   0.692
  513SOL     OW 3545   2.019   1.543   5.839
  513SOL    HW1 3546   2.033   1.595   5.760
  513SOL    HW2 3547   2.106   1.536   5.879
  514SOL     OW 3548   1.659  10.432   4.102
  514SOL    HW1 3549   1.717  10.481   4.160
  514SOL    HW2 3550   1.709  10.421   4.021
  515SOL     OW 3551   2.710   2.181  10.386
  515SOL    HW1 3552   2.652   2.105  10.376
  515SOL    HW2 3553   2.791   2.144  10.422
  516SOL     OW 3554   6.911   6.059   6.371
  516SOL    HW1 3555   6.944   6.142   6.338
  516SOL    HW2 3556   6.875   6.015   6.293
  517SOL     OW 3557   7.661   1.754   5.067
  517SOL    HW1 3558   7.685   1.665   5.041
  517SOL    HW2 3559   7.634   1.746   5.158
  518SOL     OW 3560   7.715   4.348   0.653
  518SOL    HW1 3561   7.758   4.264   0.637
  518SOL    HW2 3562   7.759   4.409   0.594
  519SOL     OW 3563   3.545   9.951   4.079
  519SOL    HW1 3564   3.468   9.988   4.121
  519SOL    HW2 3565   3.533   9.856   4.085
  520SOL     OW 3566  10.644   9.844   5.321
  520SOL    HW1 3567  10.738   9.826   5.314
  520SOL    HW2 3568  10.607   9.807   5.241
  521SOL     OW 3569   4.754   7.034   7.902
  521SOL    HW1 3570   4.767   6.973   7.828
  521SOL    HW2 3571   4.660   7.053   7.901
  522SOL     OW 3572   2.132   4.856   3.939
  522SOL    HW1 3573   2.060   4.860   4.002
  522SOL    HW2 3574   2.131   4.765   3.908
  523SOL     OW 3575   0.573   4.683   5.688
  523SOL    HW1 3576   0.500   4.669   5.628
  523SOL    HW2 3577   0.636   4.734   5.637
  524SOL     OW 3578  10.813   0.061   5.036
  524SOL    HW1 3579  10.736   0.057   4.979
  524SOL    HW2 3580  10.887   0.056   4.975
  525SOL     OW 3581   6.790   7.396   4.914
  525SOL    HW1 3582   6.741   7.391   4.995
  525SOL    HW2 3583   6.730   7.363   4.847
  526SOL     OW 3584   5.507   5.867   1.730
  526SOL    HW1 3585   5.580   5.806   1.744
  526SOL    HW2 3586   5.536   5.948   1.771
  527SOL     OW 3587   8.091   8.020  10.235
  527SOL    HW1 3588   8.117   7.928  10.232
  527SOL    HW2 3589   8.170   8.067  10.261
  528SOL     OW 3590   3.731   7.617  10.509
  528SOL    HW1 3591   3.638   7.637  10.505
  528SOL    HW2 3592   3.750   7.574  10.425
  529SOL     OW 3593   4.100   3.126  10.296
  529SOL    HW1 3594   4.094   3.109  10.390
  529SOL    HW2 3595   4.083   3.041  10.255
  530SOL     OW 3596  10.968   5.617   2.709
  530SOL    HW1 3597  10.993   5.550   2.773
  530SOL    HW2 3598  11.044   5.624   2.651
  531SOL     OW 3599   0.575   2.556   4.675
  531SOL    HW1 3600   0.567   2.637   4.625
  531SOL    HW2 3601   0.536   2.576   4.760
  532SOL     OW 3602   3.851  10.589   3.008
  532SOL    HW1 3603   3.801  10.669   3.022
  532SOL    HW2 3604   3.910  10.610   2.935
  533SOL     OW 3605   2.371   0.497   0.874
  533SOL    HW1 3606   2.367   0.579   0.825
  533SOL    HW2 3607   2.431   0.515   0.946
  534SOL     OW 3608   7.970   0.781   5.707
  534SOL    HW1 3609   8.037   0.804   5.642
  534SOL    HW2 3610   7.991   0.690   5.731
  535SOL     OW 3611   0.620  10.651  10.025
  535SOL    HW1 3612   0.530  10.638   9.996
  535SOL    HW2 3613   0.670  10.582   9.981
  536SOL     OW 3614   3.420   7.143   4.986
  536SOL    HW1 3615   3.444   7.084   4.914
  536SOL    HW2 3616   3.407   7.085   5.061
  537SOL     OW 3617   6.877   0.953   6.448
  537SOL    HW1 3618   6.800   1.008   6.436
  537SOL    HW2 3619   6.876   0.930   6.541
  538SOL     OW 3620   3.504   1.311   1.398
  538SOL    HW1 3621   3.515   1.395   1.354
  538SOL    HW2 3622   3.573   1.255   1.361
  539SOL     OW 3623  10.975   9.781   2.817
  539SOL    HW1 3624  11.042   9.792   2.884
  539SOL    HW2 3625  11.024   9.764   2.736
  540SOL     OW 3626   7.619   9.273   7.051
  540SOL    HW1 3627   7.697   9.218   7.062
  540SOL    HW2 3628   7.546   9.211   7.052
  541SOL     OW 3629   6.731   2.527   4.524
  541SOL    HW1 3630   6.765   2.616   4.519
  541SOL    HW2 3631   6.637   2.536   4.507
  542SOL     OW 3632   5.148   6.233   2.923
  542SOL    HW1 3633   5.186   6.304   2.872
  542SOL    HW2 3634   5.216   6.210   2.986
  543SOL     OW 3635   2.065  11.091   7.625
  543SOL    HW1 3636   2.087  10.999   7.640
  543SOL    HW2 3637   1.977  11.101   7.661
  544SOL     OW 3638   9.643   9.300   5.811
  544SOL    HW1 3639   9.707   9.276   5.744
  544SOL    HW2 3640   9.602   9.380   5.778
  545SOL     OW 3641   9.386   0.488   5.732
  545SOL    HW1 3642   9.347   0.501   5.818
  545SOL    HW2 3643   9.355   0.401   5.704
  546SOL     OW 3644   1.107   9.649   4.279
  546SOL    HW1 3645   1.067   9.734   4.261
  546SOL    HW2 3646   1.136   9.655   4.370
  547SOL     OW 3647   0.244   5.824   9.296
  547SOL    HW1 3648   0.236   5.731   9.318
  547SOL    HW2 3649   0.258   5.825   9.201
  548SOL     OW 3650   1.472   6.569   3.038
  548SOL    HW1 3651   1.403   6.519   3.081
  548SOL    HW2 3652   1.494   6.638   3.100
  549SOL     OW 3653   3.860   9.528   1.252
  549SOL    HW1 3654   3.895   9.616   1.237
  549SOL    HW2 3655   3.932   9.480   1.293
  550SOL     OW 3656   3.800   5.550   8.854
  550SOL    HW1 3657   3.728   5.593   8.807
  550SOL    HW2 3658   3.876   5.606   8.839
  551SOL     OW 3659   8.017   0.192   4.831
  551SOL    HW1 3660   8.025   0.190   4.926
  551SOL    HW2 3661   8.022   0.284   4.807
  552SOL     OW 3662  10.649   1.658  10.855
  552SOL    HW1 3663  10.597   1.611  10.789
  552SOL    HW2 3664  10.652   1.598  10.930
  553SOL     OW 3665   4.127   2.733  11.061
  553SOL    HW1 3666   4.108   2.817  11.019
  553SOL    HW2 3667   4.041   2.695  11.078
  554SOL     OW 3668   4.349  10.576   1.904
  554SOL    HW1 3669   4.302  10.505   1.861
  554SOL    HW2 3670   4.384  10.537   1.984
  555SOL     OW 3671   3.916   9.641   6.103
  555SOL    HW1 3672   3.891   9.704   6.170
  555SOL    HW2 3673   3.835   9.597   6.079
  556SOL     OW 3674   3.446  11.031   5.292
  556SOL    HW1 3675   3.350  11.031   5.291
  556SOL    HW2 3676   3.470  10.938   5.288
  557SOL     OW 3677   9.117   5.080   3.587
  557SOL    HW1 3678   9.044   5.101   3.529
  557SOL    HW2 3679   9.128   4.985   3.577
  558SOL     OW 3680   2.463  10.249  10.679
  558SOL    HW1 3681   2.423  10.171  10.718
  558SOL    HW2 3682   2.545  10.260  10.726
  559SOL     OW 3683   0.696   4.921   6.566
  559SOL    HW1 3684   0.648   4.955   6.641
  559SOL    HW2 3685   0.768   4.983   6.554
  560SOL     OW 3686   7.628   2.928   8.864
  560SOL    HW1 3687   7.626   2.865   8.936
  560SOL    HW2 3688   7.680   3.001   8.897
  561SOL     OW 3689   4.194   5.452   0.247
  561SOL    HW1 3690   4.156   5.516   0.307
  561SOL    HW2 3691   4.155   5.368   0.272
  562SOL     OW 3692   2.786   7.815   1.811
  562SOL    HW1 3693   2.710   7.865   1.782
  562SOL    HW2 3694   2.758   7.774   1.893
  563SOL     OW 3695   2.117   4.988   4.289
  563SOL    HW1 3696   2.054   4.932   4.244
  563SOL    HW2 3697   2.088   4.989   4.380
  564SOL     OW 3698   7.024  10.374   9.130
  564SOL    HW1 3699   7.062  10.286   9.122
  564SOL    HW2 3700   6.930  10.359   9.123
  565SOL     OW 3701   5.078   1.012   3.567
  565SOL    HW1 3702   5.106   0.934   3.615
  565SOL    HW2 3703   5.037   1.068   3.632
  566SOL     OW 3704   8.826   2.182   5.793
  566SOL    HW1 3705   8.819   2.197   5.887
  566SOL    HW2 3706   8.799   2.091   5.781
  567SOL     OW 3707   6.027   4.893   3.304
  567SOL    HW1 3708   6.119   4.869   3.316
  567SOL    HW2 3709   5.980   4.836   3.365
  568SOL     OW 3710   9.808   7.080   5.952
  568SOL    HW1 3711   9.727   7.116   5.988
  568SOL    HW2 3712   9.855   7.045   6.028
  569SOL     OW 3713   7.937   9.500   0.736
  569SOL    HW1 3714   7.928   9.404   0.735
  569SOL    HW2 3715   7.960   9.523   0.646
  570SOL     OW 3716   9.897   9.277  11.095
  570SOL    HW1 3717   9.849   9.359  11.103
  570SOL    HW2 3718   9.989   9.302  11.107
  571SOL     OW 3719   9.640   8.837   8.008
  571SOL    HW1 3720   9.631   8.801   7.919
  571SOL    HW2 3721   9.698   8.776   8.053
  572SOL     OW 3722   1.499  10.199   3.199
  572SOL    HW1 3723   1.420  10.171   3.153
  572SOL    HW2 3724   1.483  10.177   3.290
  573SOL     OW 3725   1.003  11.045   1.739
  573SOL    HW1 3726   0.919  11.052   1.694
  573SOL    HW2 3727   0.987  11.078   1.827
  574SOL     OW 3728   5.220   6.677   1.063
  574SOL    HW1 3729   5.307   6.679   1.103
  574SOL    HW2 3730   5.191   6.768   1.064
  575SOL     OW 3731   4.434   1.894   6.907
  575SOL    HW1 3732   4.510   1.906   6.964
  575SOL    HW2 3733   4.470   1.853   6.828
  576SOL     OW 3734   4.820   1.580  10.622
  576SOL    HW1 3735   4.848   1.508  10.678
  576SOL    HW2 3736   4.893   1.593  10.562
  577SOL     OW 3737  10.670   9.800   8.658
  577SOL    HW1 3738  10.706   9.730   8.603
  577SOL    HW2 3739  10.739   9.867   8.659
  578SOL     OW 3740   3.478   4.671   5.570
  578SOL    HW1 3741   3.419   4.694   5.641
  578SOL    HW2 3742   3.473   4.575   5.565
  579SOL     OW 3743   4.975   0.497  10.079
  579SOL    HW1 3744   5.005   0.581  10.113
  579SOL    HW2 3745   5.053   0.459  10.038
  580SOL     OW 3746   8.411   9.058   1.649
  580SOL    HW1 3747   8.332   9.105   1.624
  580SOL    HW2 3748   8.379   8.982   1.698
  581SOL     OW 3749   9.525   9.252   2.979
  581SOL    HW1 3750   9.515   9.337   3.021
  581SOL    HW2 3751   9.486   9.189   3.040
  582SOL     OW 3752   0.903   5.307   1.855
  582SOL    HW1 3753   0.837   5.237   1.860
  582SOL    HW2 3754   0.972   5.270   1.800
  583SOL     OW 3755   1.068   7.062   4.854
  583SOL    HW1 3756   1.128   6.999   4.813
  583SOL    HW2 3757   1.072   7.041   4.947
  584SOL     OW 3758   7.697   5.647   5.220
  584SOL    HW1 3759   7.748   5.666   5.141
  584SOL    HW2 3760   7.627   5.711   5.219
  585SOL     OW 3761   3.775   2.406   7.445
  585SOL    HW1 3762   3.870   2.418   7.436
  585SOL    HW2 3763   3.761   2.313   7.428
  586SOL     OW 3764  10.726   0.665   1.036
  586SOL    HW1 3765  10.791   0.723   0.996
  586SOL    HW2 3766  10.717   0.697   1.125
  587SOL     OW 3767   0.041   0.508   3.222
  587SOL    HW1 3768   0.010   0.419   3.239
  587SOL    HW2 3769  -0.035   0.563   3.239
  588SOL     OW 3770   0.237   6.577   1.553
  588SOL    HW1 3771   0.262   6.553   1.642
  588SOL    HW2 3772   0.177   6.651   1.564
  589SOL     OW 3773   9.978   9.674   1.930
  589SOL    HW1 3774   9.946   9.585   1.947
  589SOL    HW2 3775  10.045   9.662   1.862
  590SOL     OW 3776   1.062   5.913  10.056
  590SOL    HW1 3777   0.972   5.880  10.056
  590SOL    HW2 3778   1.056   5.999  10.015
  591SOL     OW 3779   4.048   1.472   7.768
  591SOL    HW1 3780   4.005   1.474   7.682
  591SOL    HW2 3781   4.009   1.396   7.812
  592SOL     OW 3782   1.915   9.848   0.122
  592SOL    HW1 3783   1.939   9.920   0.064
  592SOL    HW2 3784   1.980   9.780   0.104
  593SOL     OW 3785   8.829   5.935   4.922
  593SOL    HW1 3786   8.916   5.943   4.883
  593SOL    HW2 3787   8.769   5.955   4.850
  594SOL     OW 3788   2.691  10.178   2.822
  594SOL    HW1 3789   2.679  10.232   2.744
  594SOL    HW2 3790   2.610  10.188   2.871
  595SOL     OW 3791   0.590   9.180   9.454
  595SOL    HW1 3792   0.547   9.258   9.420
  595SOL    HW2 3793   0.607   9.200   9.546
  596SOL     OW 3794   0.198   9.507   3.223
  596SOL    HW1 3795   0.219   9.595   3.254
  596SOL    HW2 3796   0.144   9.468   3.292
  597SOL     OW 3797   0.982   4.276   3.743
  597SOL    HW1 3798   0.940   4.287   3.828
  597SOL    HW2 3799   1.003   4.365   3.714
  598SOL     OW 3800   3.703   0.913   6.204
  598SOL    HW1 3801   3.765   0.875   6.141
  598SOL    HW2 3802   3.725   0.871   6.287
  599SOL     OW 3803   9.984   6.035   6.348
  599SOL    HW1 3804  10.059   5.985   6.382
  599SOL    HW2 3805   9.988   6.119   6.393
  600SOL     OW 3806   0.788  10.270   3.192
  600SOL    HW1 3807   0.711  10.305   3.148
  600SOL    HW2 3808   0.855  10.265   3.123
  601SOL     OW 3809   6.433   1.872   5.551
  601SOL    HW1 3810   6.483   1.936   5.600
  601SOL    HW2 3811   6.354   1.919   5.523
  602SOL     OW 3812   6.311   4.360   3.669
  602SOL    HW1 3813   6.293   4.436   3.724
  602SOL    HW2 3814   6.355   4.396   3.592
  603SOL     OW 3815   4.687  10.966   1.860
  603SOL    HW1 3816   4.651  11.036   1.805
  603SOL    HW2 3817   4.617  10.902   1.867
  604SOL     OW 3818   7.734   7.892   2.718
  604SOL    HW1 3819   7.659   7.941   2.752
  604SOL    HW2 3820   7.811   7.941   2.748
  605SOL     OW 3821   2.794   1.622   7.992
  605SOL    HW1 3822   2.821   1.712   7.974
  605SOL    HW2 3823   2.704   1.617   7.960
  606SOL     OW 3824   9.608   8.816  10.496
  606SOL    HW1 3825   9.530   8.765  10.519
  606SOL    HW2 3826   9.604   8.893  10.552
  607SOL     OW 3827   2.903   9.676   5.141
  607SOL    HW1 3828   2.835   9.738   5.165
  607SOL    HW2 3829   2.972   9.689   5.206
  608SOL     OW 3830   0.123  10.646   5.576
  608SOL    HW1 3831   0.079  10.731   5.580
  608SOL    HW2 3832   0.159  10.633   5.663
  609SOL     OW 3833   6.946   2.006   7.757
  609SOL    HW1 3834   6.860   1.966   7.765
  609SOL    HW2 3835   6.957   2.056   7.837
  610SOL     OW 3836   7.346   0.576   2.482
  610SOL    HW1 3837   7.278   0.583   2.549
  610SOL    HW2 3838   7.320   0.639   2.414
  611SOL     OW 3839   5.975  10.898   0.387
  611SOL    HW1 3840   5.979  10.986   0.350
  611SOL    HW2 3841   5.924  10.908   0.467
  612SOL     OW 3842   6.860   2.767   4.555
  612SOL    HW1 3843   6.920   2.788   4.483
  612SOL    HW2 3844   6.917   2.743   4.628
  613SOL     OW 3845   9.093   1.798   2.705
  613SOL    HW1 3846   9.010   1.778   2.748
  613SOL    HW2 3847   9.075   1.877   2.654
  614SOL     OW 3848  10.207   4.308   3.390
  614SOL    HW1 3849  10.209   4.249   3.465
  614SOL    HW2 3850  10.295   4.301   3.352
  615SOL     OW 3851   3.606   0.952   6.507
  615SOL    HW1 3852   3.537   0.950   6.573
  615SOL    HW2 3853   3.603   1.041   6.472
  616SOL     OW 3854   3.191  10.838   6.419
  616SOL    HW1 3855   3.229  10.923   6.439
  616SOL    HW2 3856   3.111  10.834   6.471
  617SOL     OW 3857   7.560   6.710   8.671
  617SOL    HW1 3858   7.639   6.674   8.710
  617SOL    HW2 3859   7.511   6.747   8.744
  618SOL     OW 3860   1.312   0.846   5.751
  618SOL    HW1 3861   1.402   0.879   5.752
  618SOL    HW2 3862   1.261   0.914   5.794
  619SOL     OW 3863   7.474   2.213   4.042
  619SOL    HW1 3864   7.407   2.154   4.077
  619SOL    HW2 3865   7.456   2.217   3.948
  620SOL     OW 3866   1.461   7.386   8.509
  620SOL    HW1 3867   1.424   7.426   8.587
  620SOL    HW2 3868   1.549   7.358   8.535
  621SOL     OW 3869   2.139   5.654   3.280
  621SOL    HW1 3870   2.124   5.581   3.219
  621SOL    HW2 3871   2.210   5.624   3.336
  622SOL     OW 3872   6.094   7.101   4.083
  622SOL    HW1 3873   6.167   7.134   4.030
  622SOL    HW2 3874   6.032   7.067   4.018
  623SOL     OW 3875   5.721   7.789  10.721
  623SOL    HW1 3876   5.655   7.721  10.734
  623SOL    HW2 3877   5.679   7.869  10.751
  624SOL     OW 3878   3.971   1.063  10.491
  624SOL    HW1 3879   4.004   1.084  10.403
  624SOL    HW2 3880   3.922   1.141  10.517
  625SOL     OW 3881  11.105   5.826   1.837
  625SOL    HW1 3882  11.021   5.830   1.882
  625SOL    HW2 3883  11.096   5.887   1.764
  626SOL     OW 3884   9.198   9.871   6.449
  626SOL    HW1 3885   9.154   9.792   6.417
  626SOL    HW2 3886   9.230   9.847   6.536
  627SOL     OW 3887   6.832   9.117   5.569
  627SOL    HW1 3888   6.910   9.146   5.521
  627SOL    HW2 3889   6.767   9.101   5.500
  628SOL     OW 3890   3.428   9.865   1.211
  628SOL    HW1 3891   3.347   9.892   1.168
  628SOL    HW2 3892   3.497   9.889   1.149
  629SOL     OW 3893   8.170   8.398   7.068
  629SOL    HW1 3894   8.150   8.470   7.127
  629SOL    HW2 3895   8.202   8.328   7.124
  630SOL     OW 3896   3.885  11.078   7.941
  630SOL    HW1 3897   3.926  11.031   7.868
  630SOL    HW2 3898   3.951  11.142   7.968
  631SOL     OW 3899   8.589   7.172   4.930
  631SOL    HW1 3900   8.611   7.092   4.977
  631SOL    HW2 3901   8.657   7.179   4.863
  632SOL     OW 3902   0.136   7.893   4.909
  632SOL    HW1 3903   0.091   7.874   4.826
  632SOL    HW2 3904   0.205   7.954   4.885
  633SOL     OW 3905   4.513   1.984   1.187
  633SOL    HW1 3906   4.549   1.917   1.129
  633SOL    HW2 3907   4.589   2.036   1.214
  634SOL     OW 3908   3.215   7.673   4.267
  634SOL    HW1 3909   3.130   7.712   4.289
  634SOL    HW2 3910   3.211   7.585   4.304
  635SOL     OW 3911   8.479   1.568   3.507
  635SOL    HW1 3912   8.464   1.473   3.504
  635SOL    HW2 3913   8.391   1.606   3.508
  636SOL     OW 3914   6.394   0.267   4.589
  636SOL    HW1 3915   6.319   0.228   4.634
  636SOL    HW2 3916   6.469   0.212   4.615
  637SOL     OW 3917   5.083   9.181  10.049
  637SOL    HW1 3918   5.146   9.139  10.107
  637SOL    HW2 3919   5.127   9.260  10.019
  638SOL     OW 3920  10.900   3.043   2.740
  638SOL    HW1 3921  10.877   3.135   2.749
  638SOL    HW2 3922  10.976   3.031   2.797
  639SOL     OW 3923   8.888   3.615   3.482
  639SOL    HW1 3924   8.795   3.592   3.477
  639SOL    HW2 3925   8.916   3.582   3.567
  640SOL     OW 3926   3.347   5.942   8.688
  640SOL    HW1 3927   3.315   6.023   8.650
  640SOL    HW2 3928   3.287   5.875   8.656
  641SOL     OW 3929   9.137   5.957   3.771
  641SOL    HW1 3930   9.128   6.007   3.851
  641SOL    HW2 3931   9.232   5.946   3.760
  642SOL     OW 3932   3.286   2.491  10.433
  642SOL    HW1 3933   3.299   2.460  10.343
  642SOL    HW2 3934   3.191   2.498  10.442
  643SOL     OW 3935   2.145   0.360   1.192
  643SOL    HW1 3936   2.156   0.382   1.284
  643SOL    HW2 3937   2.061   0.398   1.168
  644SOL     OW 3938   9.744   8.579  10.630
  644SOL    HW1 3939   9.825   8.528  10.638
  644SOL    HW2 3940   9.766   8.665  10.666
  645SOL     OW 3941   0.474  10.911   6.974
  645SOL    HW1 3942   0.539  10.875   6.913
  645SOL    HW2 3943   0.484  10.858   7.053
  646SOL     OW 3944  10.719  10.312   7.846
  646SOL    HW1 3945  10.789  10.371   7.818
  646SOL    HW2 3946  10.687  10.273   7.764
  647SOL     OW 3947   3.009   2.591  11.032
  647SOL    HW1 3948   3.027   2.512  10.980
  647SOL    HW2 3949   2.927   2.625  10.996
  648SOL     OW 3950  10.981   1.149   3.773
  648SOL    HW1 3951  11.000   1.239   3.749
  648SOL    HW2 3952  11.005   1.098   3.695
  649SOL     OW 3953  10.616   0.592   7.345
  649SOL    HW1 3954  10.692   0.555   7.299
  649SOL    HW2 3955  10.651   0.629   7.426
  650SOL     OW 3956   3.760   4.119   9.007
  650SOL    HW1 3957   3.847   4.142   9.039
  650SOL    HW2 3958   3.712   4.201   9.006
  651SOL     OW 3959   7.405   5.324   6.274
  651SOL    HW1 3960   7.326   5.377   6.261
  651SOL    HW2 3961   7.449   5.325   6.189
  652SOL     OW 3962   3.199   3.812   9.171
  652SOL    HW1 3963   3.273   3.766   9.211
  652SOL    HW2 3964   3.238   3.889   9.130
  653SOL     OW 3965   4.132   1.573   2.182
  653SOL    HW1 3966   4.099   1.633   2.115
  653SOL    HW2 3967   4.110   1.486   2.148
  654SOL     OW 3968   3.002   9.481   5.899
  654SOL    HW1 3969   2.998   9.385   5.906
  654SOL    HW2 3970   2.918   9.506   5.861
  655SOL     OW 3971   6.319   2.297   8.353
  655SOL    HW1 3972   6.252   2.248   8.305
  655SOL    HW2 3973   6.276   2.378   8.378
  656SOL     OW 3974   6.071   9.706   6.404
  656SOL    HW1 3975   6.144   9.644   6.403
  656SOL    HW2 3976   5.993   9.652   6.390
  657SOL     OW 3977   7.168   7.559   4.214
  657SOL    HW1 3978   7.223   7.513   4.277
  657SOL    HW2 3979   7.189   7.651   4.227
  658SOL     OW 3980   7.555   2.993   5.085
  658SOL    HW1 3981   7.488   3.005   5.018
  658SOL    HW2 3982   7.520   2.924   5.141
  659SOL     OW 3983  10.044   6.405   1.547
  659SOL    HW1 3984   9.967   6.458   1.527
  659SOL    HW2 3985  10.118   6.457   1.516
  660SOL     OW 3986   1.796   0.938   3.547
  660SOL    HW1 3987   1.713   0.982   3.531
  660SOL    HW2 3988   1.843   0.944   3.463
  661SOL     OW 3989  10.914   6.735   2.747
  661SOL    HW1 3990  10.853   6.752   2.818
  661SOL    HW2 3991  10.933   6.821   2.710
  662SOL     OW 3992   1.509   8.654  11.099
  662SOL    HW1 3993   1.541   8.731  11.145
  662SOL    HW2 3994   1.438   8.687  11.044
  663SOL     OW 3995   5.850   3.865  11.059
  663SOL    HW1 3996   5.884   3.881  10.971
  663SOL    HW2 3997   5.885   3.779  11.082
  664SOL     OW 3998   6.405   1.564   3.686
  664SOL    HW1 3999   6.443   1.547   3.599
  664SOL    HW2 4000   6.350   1.487   3.703
  665SOL     OW 4001   8.344  10.009   5.668
  665SOL    HW1 4002   8.370   9.947   5.599
  665SOL    HW2 4003   8.277  10.064   5.627
  666SOL     OW 4004  10.575   6.848   9.087
  666SOL    HW1 4005  10.486   6.858   9.054
  666SOL    HW2 4006  10.564   6.823   9.178
  667SOL     OW 4007  10.634   2.808   7.187
  667SOL    HW1 4008  10.585   2.805   7.104
  667SOL    HW2 4009  10.569   2.786   7.254
  668SOL     OW 4010   3.762   5.240   7.566
  668SOL    HW1 4011   3.803   5.153   7.566
  668SOL    HW2 4012   3.748   5.260   7.658
  669SOL     OW 4013  10.508   6.697   4.683
  669SOL    HW1 4014  10.482   6.605   4.694
  669SOL    HW2 4015  10.576   6.694   4.615
  670SOL     OW 4016  10.349   9.099  10.709
  670SOL    HW1 4017  10.292   9.051  10.649
  670SOL    HW2 4018  10.411   9.033  10.741
  671SOL     OW 4019   9.624   0.587   5.500
  671SOL    HW1 4020   9.600   0.591   5.407
  671SOL    HW2 4021   9.541   0.599   5.547
  672SOL     OW 4022   2.693   8.607   8.563
  672SOL    HW1 4023   2.710   8.580   8.472
  672SOL    HW2 4024   2.779   8.601   8.606
  673SOL     OW 4025   3.326   9.210   6.384
  673SOL    HW1 4026   3.314   9.193   6.290
  673SOL    HW2 4027   3.378   9.290   6.387
  674SOL     OW 4028   5.801   9.222   7.154
  674SOL    HW1 4029   5.763   9.136   7.175
  674SOL    HW2 4030   5.855   9.244   7.230
  675SOL     OW 4031   1.768   8.875   2.645
  675SOL    HW1 4032   1.725   8.949   2.603
  675SOL    HW2 4033   1.860   8.883   2.619
  676SOL     OW 4034   4.590   0.464   0.370
  676SOL    HW1 4035   4.520   0.520   0.336
  676SOL    HW2 4036   4.656   0.524   0.403
  677SOL     OW 4037  10.746   6.540   3.171
  677SOL    HW1 4038  10.710   6.452   3.187
  677SOL    HW2 4039  10.837   6.524   3.145
  678SOL     OW 4040   6.586   4.134   9.745
  678SOL    HW1 4041   6.522   4.085   9.796
  678SOL    HW2 4042   6.669   4.120   9.791
  679SOL     OW 4043  10.564   8.070   8.780
  679SOL    HW1 4044  10.551   8.143   8.840
  679SOL    HW2 4045  10.518   8.096   8.700
  680SOL     OW 4046   0.250   8.258   1.657
  680SOL    HW1 4047   0.186   8.314   1.613
  680SOL    HW2 4048   0.212   8.240   1.743
  681SOL     OW 4049  10.071   7.507   2.712
  681SOL    HW1 4050  10.024   7.557   2.645
  681SOL    HW2 4051  10.005   7.489   2.779
  682SOL     OW 4052   9.696  10.088   4.893
  682SOL    HW1 4053   9.656  10.160   4.941
  682SOL    HW2 4054   9.780  10.073   4.936
  683SOL     OW 4055   4.069   1.003   6.294
  683SOL    HW1 4056   3.997   1.059   6.267
  683SOL    HW2 4057   4.073   0.935   6.227
  684SOL     OW 4058   4.852  10.091   8.934
  684SOL    HW1 4059   4.930  10.132   8.971
  684SOL    HW2 4060   4.780  10.148   8.958
  685SOL     OW 4061   4.331   2.894   7.026
  685SOL    HW1 4062   4.394   2.962   7.001
  685SOL    HW2 4063   4.336   2.890   7.121
  686SOL     OW 4064   1.516  10.817   4.378
  686SOL    HW1 4065   1.508  10.881   4.448
  686SOL    HW2 4066   1.580  10.855   4.317
  687SOL     OW 4067  10.336   5.835   3.907
  687SOL    HW1 4068  10.417   5.860   3.863
  687SOL    HW2 4069  10.297   5.770   3.848
  688SOL     OW 4070   7.166   0.246   2.365
  688SOL    HW1 4071   7.197   0.155   2.366
  688SOL    HW2 4072   7.144   0.265   2.456
  689SOL     OW 4073   5.362   9.363   1.421
  689SOL    HW1 4074   5.298   9.431   1.399
  689SOL    HW2 4075   5.445   9.410   1.432
  690SOL     OW 4076  10.087   0.139   5.304
  690SOL    HW1 4077  10.143   0.066   5.330
  690SOL    HW2 4078  10.000   0.100   5.293
  691SOL     OW 4079   0.995  10.564   2.726
  691SOL    HW1 4080   1.064  10.610   2.678
  691SOL    HW2 4081   0.984  10.614   2.807
  692SOL     OW 4082   3.242   8.613   0.625
  692SOL    HW1 4083   3.219   8.601   0.717
  692SOL    HW2 4084   3.188   8.549   0.578
  693SOL     OW 4085   4.699   0.185  10.554
  693SOL    HW1 4086   4.683   0.117  10.619
  693SOL    HW2 4087   4.636   0.254  10.575
  694SOL     OW 4088   4.330   9.772   8.757
  694SOL    HW1 4089   4.386   9.771   8.834
  694SOL    HW2 4090   4.376   9.718   8.693
  695SOL     OW 4091   4.471   0.168   9.280
  695SOL    HW1 4092   4.489   0.083   9.240
  695SOL    HW2 4093   4.534   0.227   9.239
  696SOL     OW 4094   1.803   6.912   5.769
  696SOL    HW1 4095   1.896   6.930   5.785
  696SOL    HW2 4096   1.760   6.997   5.780
  697SOL     OW 4097   7.546  10.648   4.587
  697SOL    HW1 4098   7.587  10.665   4.502
  697SOL    HW2 4099   7.490  10.724   4.602
  698SOL     OW 4100  10.418   1.405   9.901
  698SOL    HW1 4101  10.400   1.482   9.848
  698SOL    HW2 4102  10.342   1.349   9.888
  699SOL     OW 4103   5.597   2.754   6.679
  699SOL    HW1 4104   5.672   2.719   6.630
  699SOL    HW2 4105   5.576   2.836   6.635
  700SOL     OW 4106   7.531   3.053   4.653
  700SOL    HW1 4107   7.590   3.126   4.635
  700SOL    HW2 4108   7.444   3.093   4.660
  701SOL     OW 4109  10.160  10.413   4.893
  701SOL    HW1 4110  10.083  10.377   4.937
  701SOL    HW2 4111  10.234  10.387   4.948
  702SOL     OW 4112   1.767   8.110   1.363
  702SOL    HW1 4113   1.852   8.102   1.407
  702SOL    HW2 4114   1.719   8.031   1.389
  703SOL     OW 4115   9.709  10.287   6.012
  703SOL    HW1 4116   9.659  10.206   6.021
  703SOL    HW2 4117   9.754  10.297   6.096
  704SOL     OW 4118   6.287   0.023   4.962
  704SOL    HW1 4119   6.302  -0.057   4.912
  704SOL    HW2 4120   6.375   0.057   4.980
  705SOL     OW 4121   3.960   2.118   5.527
  705SOL    HW1 4122   3.899   2.075   5.467
  705SOL    HW2 4123   3.916   2.115   5.612
  706SOL     OW 4124   7.001   4.974   9.584
  706SOL    HW1 4125   7.038   4.923   9.656
  706SOL    HW2 4126   7.041   4.937   9.505
  707SOL     OW 4127   2.280   9.772   2.094
  707SOL    HW1 4128   2.294   9.750   2.186
  707SOL    HW2 4129   2.274   9.867   2.093
  708SOL     OW 4130   2.275   6.007   6.052
  708SOL    HW1 4131   2.198   6.016   5.996
  708SOL    HW2 4132   2.258   5.928   6.104
  709SOL     OW 4133   0.171   1.847   1.745
  709SOL    HW1 4134   0.264   1.868   1.752
  709SOL    HW2 4135   0.163   1.804   1.659
  710SOL     OW 4136   5.270   1.662   7.412
  710SOL    HW1 4137   5.246   1.673   7.504
  710SOL    HW2 4138   5.321   1.740   7.390
  711SOL     OW 4139   1.742   9.499   0.483
  711SOL    HW1 4140   1.764   9.408   0.462
  711SOL    HW2 4141   1.774   9.511   0.572
  712SOL     OW 4142   8.853   6.910   0.965
  712SOL    HW1 4143   8.892   6.997   0.973
  712SOL    HW2 4144   8.925   6.850   0.983
  713SOL     OW 4145   5.144   4.186   5.297
  713SOL    HW1 4146   5.129   4.100   5.257
  713SOL    HW2 4147   5.219   4.222   5.249
  714SOL     OW 4148   4.037   2.771   6.589
  714SOL    HW1 4149   4.132   2.775   6.577
  714SOL    HW2 4150   4.016   2.846   6.643
  715SOL     OW 4151   2.702  10.274  10.800
  715SOL    HW1 4152   2.783  10.239  10.838
  715SOL    HW2 4153   2.731  10.320  10.721
  716SOL     OW 4154   9.088   8.175   7.100
  716SOL    HW1 4155   9.133   8.258   7.086
  716SOL    HW2 4156   9.158   8.112   7.116
  717SOL     OW 4157   8.917   8.996   2.529
  717SOL    HW1 4158   8.974   9.071   2.544
  717SOL    HW2 4159   8.846   9.030   2.474
  718SOL     OW 4160   3.585   4.416  10.326
  718SOL    HW1 4161   3.620   4.503  10.346
  718SOL    HW2 4162   3.659   4.357  10.340
  719SOL     OW 4163   0.614   5.740   4.476
  719SOL    HW1 4164   0.525   5.770   4.493
  719SOL    HW2 4165   0.639   5.693   4.555
  720SOL     OW 4166   9.088   1.749   1.692
  720SOL    HW1 4167   9.099   1.833   1.648
  720SOL    HW2 4168   9.058   1.690   1.622
  721SOL     OW 4169   5.788   2.004   9.996
  721SOL    HW1 4170   5.779   2.099   9.989
  721SOL    HW2 4171   5.725   1.969   9.933
  722SOL     OW 4172   0.707   7.751   5.342
  722SOL    HW1 4173   0.744   7.698   5.412
  722SOL    HW2 4174   0.617   7.720   5.334
  723SOL     OW 4175   6.182  10.642   6.081
  723SOL    HW1 4176   6.170  10.726   6.036
  723SOL    HW2 4177   6.245  10.661   6.150
  724SOL     OW 4178   4.034   4.454   0.217
  724SOL    HW1 4179   4.004   4.399   0.289
  724SOL    HW2 4180   4.060   4.536   0.258
  725SOL     OW 4181   7.082   8.497   7.750
  725SOL    HW1 4182   7.172   8.509   7.781
  725SOL    HW2 4183   7.062   8.577   7.702
  726SOL     OW 4184   7.687   2.615   0.077
  726SOL    HW1 4185   7.725   2.532   0.106
  726SOL    HW2 4186   7.614   2.589   0.021
  727SOL     OW 4187   0.320   0.858   7.133
  727SOL    HW1 4188   0.314   0.933   7.074
  727SOL    HW2 4189   0.376   0.887   7.205
  728SOL     OW 4190   0.686  11.093   7.091
  728SOL    HW1 4191   0.677  11.114   6.998
  728SOL    HW2 4192   0.770  11.131   7.116
  729SOL     OW 4193   7.126   8.077   5.069
  729SOL    HW1 4194   7.204   8.132   5.070
  729SOL    HW2 4195   7.058   8.131   5.109
  730SOL     OW 4196   2.015   0.800  10.076
  730SOL    HW1 4197   2.015   0.877  10.133
  730SOL    HW2 4198   1.925   0.792  10.045
  731SOL     OW 4199   5.821  11.030   7.603
  731SOL    HW1 4200   5.892  10.976   7.568
  731SOL    HW2 4201   5.777  10.973   7.666
  732SOL     OW 4202  10.363   7.715   8.499
  732SOL    HW1 4203  10.400   7.631   8.472
  732SOL    HW2 4204  10.353   7.763   8.417
  733SOL     OW 4205   7.010   2.469   9.049
  733SOL    HW1 4206   7.044   2.541   9.102
  733SOL    HW2 4207   7.033   2.390   9.098
  734SOL     OW 4208   1.126   4.216   8.635
  734SOL    HW1 4209   1.199   4.158   8.659
  734SOL    HW2 4210   1.047   4.166   8.658
  735SOL     OW 4211  10.769   9.526   5.387
  735SOL    HW1 4212  10.772   9.566   5.473
  735SOL    HW2 4213  10.814   9.588   5.330
  736SOL     OW 4214   6.485   1.679   0.834
  736SOL    HW1 4215   6.448   1.727   0.908
  736SOL    HW2 4216   6.549   1.739   0.796
  737SOL     OW 4217   5.791   7.656   7.031
  737SOL    HW1 4218   5.881   7.644   7.062
  737SOL    HW2 4219   5.768   7.571   6.992
  738SOL     OW 4220   7.370   1.017   0.676
  738SOL    HW1 4221   7.333   1.019   0.764
  738SOL    HW2 4222   7.402   1.106   0.660
  739SOL     OW 4223   0.941   3.138   3.202
  739SOL    HW1 4224   0.989   3.122   3.121
  739SOL    HW2 4225   0.875   3.068   3.205
  740SOL     OW 4226   3.173   6.633   5.132
  740SOL    HW1 4227   3.254   6.584   5.145
  740SOL    HW2 4228   3.121   6.615   5.210
  741SOL     OW 4229   9.063   0.946   6.049
  741SOL    HW1 4230   9.088   0.901   6.129
  741SOL    HW2 4231   8.970   0.926   6.038
  742SOL     OW 4232  10.457   1.455   9.039
  742SOL    HW1 4233  10.408   1.504   8.973
  742SOL    HW2 4234  10.452   1.509   9.117
  743SOL     OW 4235   1.156   1.793   4.969
  743SOL    HW1 4236   1.065   1.807   4.995
  743SOL    HW2 4237   1.204   1.784   5.051
  744SOL     OW 4238   1.342  10.664   4.549
  744SOL    HW1 4239   1.334  10.721   4.626
  744SOL    HW2 4240   1.385  10.719   4.483
  745SOL     OW 4241   3.460   1.796   0.133
  745SOL    HW1 4242   3.427   1.806   0.223
  745SOL    HW2 4243   3.528   1.863   0.125
  746SOL     OW 4244   4.687   3.653   9.764
  746SOL    HW1 4245   4.733   3.581   9.807
  746SOL    HW2 4246   4.702   3.638   9.670
  747SOL     OW 4247   0.298   5.492   5.048
  747SOL    HW1 4248   0.335   5.418   4.999
  747SOL    HW2 4249   0.305   5.566   4.988
  748SOL     OW 4250   5.054   2.265   2.473
  748SOL    HW1 4251   5.024   2.180   2.505
  748SOL    HW2 4252   4.993   2.287   2.402
  749SOL     OW 4253   2.359   5.058   9.924
  749SOL    HW1 4254   2.306   4.981   9.945
  749SOL    HW2 4255   2.410   5.074  10.003
  750SOL     OW 4256   2.680   0.656   3.258
  750SOL    HW1 4257   2.635   0.677   3.339
  750SOL    HW2 4258   2.660   0.563   3.243
  751SOL     OW 4259   0.426   6.288   2.186
  751SOL    HW1 4260   0.382   6.326   2.262
  751SOL    HW2 4261   0.519   6.305   2.201
  752SOL     OW 4262   3.354  10.807   4.940
  752SOL    HW1 4263   3.305  10.829   4.861
  752SOL    HW2 4264   3.442  10.841   4.923
  753SOL     OW 4265   1.593   3.155   2.280
  753SOL    HW1 4266   1.642   3.088   2.327
  753SOL    HW2 4267   1.576   3.223   2.345
  754SOL     OW 4268   7.083   5.274   3.276
  754SOL    HW1 4269   7.007   5.276   3.334
  754SOL    HW2 4270   7.156   5.302   3.331
  755SOL     OW 4271   1.996   9.936   9.726
  755SOL    HW1 4272   1.997   9.886   9.644
  755SOL    HW2 4273   1.920   9.993   9.718
  756SOL     OW 4274   4.846   8.320   8.466
  756SOL    HW1 4275   4.869   8.262   8.393
  756SOL    HW2 4276   4.753   8.305   8.480
  757SOL     OW 4277   6.825   2.339   0.337
  757SOL    HW1 4278   6.880   2.272   0.378
  757SOL    HW2 4279   6.737   2.303   0.341
  758SOL     OW 4280   2.720   7.270   7.972
  758SOL    HW1 4281   2.684   7.283   7.884
  758SOL    HW2 4282   2.705   7.177   7.990
  759SOL     OW 4283   7.649  10.233   9.445
  759SOL    HW1 4284   7.626  10.274   9.362
  759SOL    HW2 4285   7.597  10.279   9.510
  760SOL     OW 4286   8.893   0.568  11.069
  760SOL    HW1 4287   8.891   0.524  11.154
  760SOL    HW2 4288   8.954   0.641  11.081
  761SOL     OW 4289   2.309   3.665   7.495
  761SOL    HW1 4290   2.352   3.743   7.461
  761SOL    HW2 4291   2.323   3.668   7.589
  762SOL     OW 4292  10.177   2.825   5.916
  762SOL    HW1 4293  10.199   2.818   6.009
  762SOL    HW2 4294  10.147   2.737   5.892
  763SOL     OW 4295   1.234  10.419   0.440
  763SOL    HW1 4296   1.321  10.382   0.421
  763SOL    HW2 4297   1.212  10.469   0.361
  764SOL     OW 4298   5.324  11.028   1.570
  764SOL    HW1 4299   5.276  11.074   1.501
  764SOL    HW2 4300   5.264  10.960   1.600
  765SOL     OW 4301   2.203   6.831   1.144
  765SOL    HW1 4302   2.150   6.829   1.064
  765SOL    HW2 4303   2.262   6.756   1.136
  766SOL     OW 4304   7.552   4.675   7.890
  766SOL    HW1 4305   7.536   4.712   7.803
  766SOL    HW2 4306   7.600   4.594   7.873
  767SOL     OW 4307   7.886   2.693  11.012
  767SOL    HW1 4308   7.837   2.674  11.092
  767SOL    HW2 4309   7.824   2.677  10.941
  768SOL     OW 4310   1.519   3.194   5.723
  768SOL    HW1 4311   1.518   3.099   5.736
  768SOL    HW2 4312   1.544   3.205   5.631
  769SOL     OW 4313   4.592   1.161   3.811
  769SOL    HW1 4314   4.539   1.188   3.886
  769SOL    HW2 4315   4.632   1.078   3.839
  770SOL     OW 4316   0.630  10.385   4.204
  770SOL    HW1 4317   0.665  10.303   4.169
  770SOL    HW2 4318   0.540  10.388   4.172
  771SOL     OW 4319  10.857   4.413   0.672
  771SOL    HW1 4320  10.920   4.350   0.636
  771SOL    HW2 4321  10.902   4.453   0.746
  772SOL     OW 4322   6.880   1.323  10.515
  772SOL    HW1 4323   6.801   1.371  10.538
  772SOL    HW2 4324   6.879   1.245  10.571
  773SOL     OW 4325   2.864   3.502   4.003
  773SOL    HW1 4326   2.798   3.566   4.028
  773SOL    HW2 4327   2.875   3.447   4.080
  774SOL     OW 4328   2.461   8.789   1.239
  774SOL    HW1 4329   2.432   8.841   1.164
  774SOL    HW2 4330   2.552   8.767   1.218
  775SOL     OW 4331  10.232   8.845  10.766
  775SOL    HW1 4332  10.248   8.791  10.688
  775SOL    HW2 4333  10.273   8.796  10.837
  776SOL     OW 4334   3.631   2.924   5.901
  776SOL    HW1 4335   3.545   2.922   5.860
  776SOL    HW2 4336   3.689   2.958   5.833
  777SOL     OW 4337  10.098   4.671   6.205
  777SOL    HW1 4338  10.067   4.759   6.227
  777SOL    HW2 4339  10.042   4.643   6.132
  778SOL     OW 4340   3.701   6.539   9.161
  778SOL    HW1 4341   3.754   6.494   9.095
  778SOL    HW2 4342   3.765   6.582   9.218
  779SOL     OW 4343   4.246   8.938   3.014
  779SOL    HW1 4344   4.214   8.998   3.081
  779SOL    HW2 4345   4.213   8.852   3.041
  780SOL     OW 4346   9.477   2.715   7.539
  780SOL    HW1 4347   9.426   2.635   7.525
  780SOL    HW2 4348   9.459   2.739   7.630
  781SOL     OW 4349   1.669   0.153   3.116
  781SOL    HW1 4350   1.669   0.248   3.110
  781SOL    HW2 4351   1.584   0.131   3.153
  782SOL     OW 4352   2.408   9.118   3.144
  782SOL    HW1 4353   2.501   9.141   3.143
  782SOL    HW2 4354   2.407   9.024   3.163
  783SOL     OW 4355   1.795   7.317   3.651
  783SOL    HW1 4356   1.849   7.382   3.695
  783SOL    HW2 4357   1.795   7.344   3.559
  784SOL     OW 4358   9.831   2.124   4.618
  784SOL    HW1 4359   9.890   2.194   4.592
  784SOL    HW2 4360   9.817   2.137   4.711
  785SOL     OW 4361   5.844  10.390   3.794
  785SOL    HW1 4362   5.936  10.410   3.812
  785SOL    HW2 4363   5.845  10.298   3.768
  786SOL     OW 4364   4.812   7.561   6.467
  786SOL    HW1 4365   4.729   7.609   6.464
  786SOL    HW2 4366   4.815   7.522   6.554
  787SOL     OW 4367   1.076   1.817  10.820
  787SOL    HW1 4368   1.128   1.843  10.896
  787SOL    HW2 4369   1.031   1.897  10.792
  788SOL     OW 4370   4.741   0.294   3.256
  788SOL    HW1 4371   4.708   0.350   3.326
  788SOL    HW2 4372   4.818   0.340   3.223
  789SOL     OW 4373   9.062   8.790   8.500
  789SOL    HW1 4374   9.031   8.813   8.587
  789SOL    HW2 4375   8.982   8.777   8.449
  790SOL     OW 4376   2.530   0.437   9.300
  790SOL    HW1 4377   2.477   0.373   9.348
  790SOL    HW2 4378   2.521   0.518   9.350
  791SOL     OW 4379   1.337   7.606   6.513
  791SOL    HW1 4380   1.374   7.693   6.527
  791SOL    HW2 4381   1.243   7.621   6.507
  792SOL     OW 4382   5.641   9.214   8.008
  792SOL    HW1 4383   5.680   9.202   8.094
  792SOL    HW2 4384   5.547   9.220   8.024
  793SOL     OW 4385   1.114   9.430   8.609
  793SOL    HW1 4386   1.068   9.349   8.632
  793SOL    HW2 4387   1.164   9.452   8.687
  794SOL     OW 4388   7.871   1.275   0.103
  794SOL    HW1 4389   7.826   1.336   0.161
  794SOL    HW2 4390   7.907   1.329   0.033
  795SOL     OW 4391   1.004   9.398   6.841
  795SOL    HW1 4392   0.927   9.455   6.846
  795SOL    HW2 4393   1.051   9.428   6.763
  796SOL     OW 4394   5.758   7.152   5.787
  796SOL    HW1 4395   5.693   7.170   5.854
  796SOL    HW2 4396   5.768   7.056   5.788
  797SOL     OW 4397   8.976   0.124   3.178
  797SOL    HW1 4398   8.912   0.190   3.203
  797SOL    HW2 4399   9.058   0.172   3.170
  798SOL     OW 4400  10.084   3.629   6.226
  798SOL    HW1 4401  10.110   3.581   6.147
  798SOL    HW2 4402  10.013   3.577   6.263
  799SOL     OW 4403   1.297   1.241   5.381
  799SOL    HW1 4404   1.242   1.240   5.302
  799SOL    HW2 4405   1.238   1.270   5.451
  800SOL     OW 4406   6.180   8.576   8.625
  800SOL    HW1 4407   6.092   8.599   8.655
  800SOL    HW2 4408   6.167   8.544   8.535
  801SOL     OW 4409   3.625  10.047   6.600
  801SOL    HW1 4410   3.669   9.962   6.606
  801SOL    HW2 4411   3.618  10.077   6.690
  802SOL     OW 4412   6.858   2.547   5.952
  802SOL    HW1 4413   6.815   2.618   5.904
  802SOL    HW2 4414   6.870   2.581   6.040
  803SOL     OW 4415   0.955   2.731   8.434
  803SOL    HW1 4416   0.983   2.725   8.342
  803SOL    HW2 4417   0.979   2.646   8.472
  804SOL     OW 4418   7.585   1.929   7.928
  804SOL    HW1 4419   7.651   1.893   7.868
  804SOL    HW2 4420   7.506   1.878   7.909
  805SOL     OW 4421   3.505   8.418   5.675
  805SOL    HW1 4422   3.600   8.409   5.680
  805SOL    HW2 4423   3.491   8.500   5.628
  806SOL     OW 4424   5.007   3.191   4.876
  806SOL    HW1 4425   5.007   3.159   4.966
  806SOL    HW2 4426   4.978   3.282   4.882
  807SOL     OW 4427   9.330   9.421   9.057
  807SOL    HW1 4428   9.283   9.503   9.069
  807SOL    HW2 4429   9.326   9.405   8.962
  808SOL     OW 4430   8.467   4.635   8.606
  808SOL    HW1 4431   8.464   4.639   8.510
  808SOL    HW2 4432   8.376   4.647   8.633
  809SOL     OW 4433   0.993   2.296  10.356
  809SOL    HW1 4434   1.011   2.234  10.426
  809SOL    HW2 4435   0.971   2.377  10.401
  810SOL     OW 4436   4.734   0.980   4.356
  810SOL    HW1 4437   4.797   0.916   4.388
  810SOL    HW2 4438   4.680   0.931   4.294
  811SOL     OW 4439   6.716  11.077   9.120
  811SOL    HW1 4440   6.646  11.042   9.175
  811SOL    HW2 4441   6.676  11.150   9.073
  812SOL     OW 4442   1.631   1.627   6.862
  812SOL    HW1 4443   1.663   1.541   6.890
  812SOL    HW2 4444   1.579   1.609   6.783
  813SOL     OW 4445   1.652   8.138   0.598
  813SOL    HW1 4446   1.580   8.117   0.657
  813SOL    HW2 4447   1.693   8.053   0.580
  814SOL     OW 4448   1.138   8.877   0.416
  814SOL    HW1 4449   1.086   8.832   0.349
  814SOL    HW2 4450   1.103   8.966   0.418
  815SOL     OW 4451   2.284   8.970   4.630
  815SOL    HW1 4452   2.202   8.924   4.648
  815SOL    HW2 4453   2.347   8.931   4.690
  816SOL     OW 4454   8.890   7.342  10.080
  816SOL    HW1 4455   8.959   7.358  10.144
  816SOL    HW2 4456   8.889   7.421  10.026
  817SOL     OW 4457   3.974   9.860   7.538
  817SOL    HW1 4458   4.006   9.945   7.508
  817SOL    HW2 4459   4.000   9.856   7.630
  818SOL     OW 4460   9.213   1.048   6.830
  818SOL    HW1 4461   9.131   1.091   6.805
  818SOL    HW2 4462   9.211   1.047   6.925
  819SOL     OW 4463   2.225   2.807   6.276
  819SOL    HW1 4464   2.316   2.815   6.248
  819SOL    HW2 4465   2.196   2.897   6.288
  820SOL     OW 4466   5.367   9.111   8.049
  820SOL    HW1 4467   5.362   9.045   8.118
  820SOL    HW2 4468   5.294   9.170   8.067
  821SOL     OW 4469   8.631   5.960   1.307
  821SOL    HW1 4470   8.585   5.877   1.322
  821SOL    HW2 4471   8.715   5.934   1.267
  822SOL     OW 4472   1.296   6.596   4.928
  822SOL    HW1 4473   1.284   6.555   5.014
  822SOL    HW2 4474   1.320   6.523   4.870
  823SOL     OW 4475   0.196   4.425  10.030
  823SOL    HW1 4476   0.166   4.418  10.120
  823SOL    HW2 4477   0.217   4.517  10.019
  824SOL     OW 4478   5.542   1.101   8.336
  824SOL    HW1 4479   5.526   1.186   8.296
  824SOL    HW2 4480   5.455   1.064   8.351
  825SOL     OW 4481  10.731   0.484  10.893
  825SOL    HW1 4482  10.663   0.498  10.827
  825SOL    HW2 4483  10.695   0.416  10.950
  826SOL     OW 4484   5.715   1.702   9.456
  826SOL    HW1 4485   5.675   1.730   9.373
  826SOL    HW2 4486   5.755   1.781   9.491
  827SOL     OW 4487  10.019   4.417   3.180
  827SOL    HW1 4488  10.044   4.408   3.088
  827SOL    HW2 4489  10.084   4.365   3.227
  828SOL     OW 4490   9.398   0.313   4.516
  828SOL    HW1 4491   9.340   0.356   4.453
  828SOL    HW2 4492   9.468   0.275   4.462
  829SOL     OW 4493   3.168   0.629   5.296
  829SOL    HW1 4494   3.247   0.668   5.333
  829SOL    HW2 4495   3.200   0.556   5.242
  830SOL     OW 4496   3.734   0.928  10.555
  830SOL    HW1 4497   3.790   0.977  10.495
  830SOL    HW2 4498   3.677   0.876  10.497
  831SOL     OW 4499   7.629   3.615  10.089
  831SOL    HW1 4500   7.538   3.589  10.077
  831SOL    HW2 4501   7.663   3.554  10.155
  832SOL     OW 4502   2.036   1.995   6.390
  832SOL    HW1 4503   2.032   1.997   6.294
  832SOL    HW2 4504   1.978   2.066   6.418
  833SOL     OW 4505   5.465   6.603   4.622
  833SOL    HW1 4506   5.459   6.665   4.695
  833SOL    HW2 4507   5.374   6.588   4.596
  834SOL     OW 4508   1.441   1.410   0.925
  834SOL    HW1 4509   1.484   1.359   0.994
  834SOL    HW2 4510   1.352   1.425   0.957
  835SOL     OW 4511   5.332   6.067   3.361
  835SOL    HW1 4512   5.337   6.024   3.446
  835SOL    HW2 4513   5.404   6.130   3.361
  836SOL     OW 4514   7.981   9.115   0.829
  836SOL    HW1 4515   7.945   9.090   0.744
  836SOL    HW2 4516   7.906   9.150   0.877
  837SOL     OW 4517   1.596   6.058   9.150
  837SOL    HW1 4518   1.626   5.967   9.156
  837SOL    HW2 4519   1.519   6.061   9.206
  838SOL     OW 4520   3.631   8.053   3.484
  838SOL    HW1 4521   3.592   7.967   3.501
  838SOL    HW2 4522   3.691   8.066   3.557
  839SOL     OW 4523   8.715   1.399  10.461
  839SOL    HW1 4524   8.730   1.456  10.385
  839SOL    HW2 4525   8.773   1.324  10.446
  840SOL     OW 4526  10.968   6.095   5.430
  840SOL    HW1 4527  10.998   6.006   5.411
  840SOL    HW2 4528  10.902   6.112   5.363
  841SOL     OW 4529   4.292   7.664   7.586
  841SOL    HW1 4530   4.221   7.603   7.605
  841SOL    HW2 4531   4.309   7.709   7.668
  842SOL     OW 4532  10.905   3.295   2.888
  842SOL    HW1 4533  10.812   3.276   2.895
  842SOL    HW2 4534  10.912   3.388   2.908
  843SOL     OW 4535   0.433   8.300   4.904
  843SOL    HW1 4536   0.373   8.339   4.841
  843SOL    HW2 4537   0.510   8.277   4.852
  844SOL     OW 4538   1.586   1.762   8.612
  844SOL    HW1 4539   1.600   1.667   8.620
  844SOL    HW2 4540   1.515   1.781   8.673
  845SOL     OW 4541   9.421   1.832   6.595
  845SOL    HW1 4542   9.371   1.852   6.674
  845SOL    HW2 4543   9.356   1.799   6.533
  846SOL     OW 4544   2.756  10.536  10.593
  846SOL    HW1 4545   2.748  10.624  10.556
  846SOL    HW2 4546   2.756  10.549  10.688
  847SOL     OW 4547   1.088   9.157   2.406
  847SOL    HW1 4548   1.048   9.142   2.320
  847SOL    HW2 4549   1.019   9.199   2.458
  848SOL     OW 4550   2.777   7.394   2.474
  848SOL    HW1 4551   2.753   7.311   2.516
  848SOL    HW2 4552   2.763   7.378   2.380
  849SOL     OW 4553   0.870   1.906   2.821
  849SOL    HW1 4554   0.825   1.944   2.896
  849SOL    HW2 4555   0.963   1.906   2.846
  850SOL     OW 4556   2.475   1.752   7.049
  850SOL    HW1 4557   2.532   1.696   6.996
  850SOL    HW2 4558   2.473   1.835   7.002
  851SOL     OW 4559   3.075   2.393   1.751
  851SOL    HW1 4560   3.007   2.425   1.691
  851SOL    HW2 4561   3.094   2.467   1.808
  852SOL     OW 4562   4.853   3.507   1.605
  852SOL    HW1 4563   4.904   3.558   1.667
  852SOL    HW2 4564   4.892   3.419   1.609
  853SOL     OW 4565   4.216   3.079   5.077
  853SOL    HW1 4566   4.220   2.983   5.074
  853SOL    HW2 4567   4.126   3.100   5.054
  854SOL     OW 4568   0.641   6.954   7.276
  854SOL    HW1 4569   0.599   6.921   7.355
  854SOL    HW2 4570   0.694   6.880   7.245
  855SOL     OW 4571   1.668   8.720   8.443
  855SOL    HW1 4572   1.687   8.781   8.513
  855SOL    HW2 4573   1.598   8.664   8.478
  856SOL     OW 4574   4.200   0.428   4.401
  856SOL    HW1 4575   4.283   0.468   4.375
  856SOL    HW2 4576   4.144   0.501   4.424
  857SOL     OW 4577   8.274   3.937   2.672
  857SOL    HW1 4578   8.212   4.007   2.691
  857SOL    HW2 4579   8.298   3.902   2.758
  858SOL     OW 4580   1.995  10.333   4.659
  858SOL    HW1 4581   1.991  10.375   4.744
  858SOL    HW2 4582   1.967  10.400   4.597
  859SOL     OW 4583   1.218   9.714   5.702
  859SOL    HW1 4584   1.191   9.802   5.728
  859SOL    HW2 4585   1.161   9.692   5.628
  860SOL     OW 4586   0.726   9.772   6.050
  860SOL    HW1 4587   0.662   9.752   6.118
  860SOL    HW2 4588   0.802   9.807   6.097
  861SOL     OW 4589   8.742   2.665   2.558
  861SOL    HW1 4590   8.774   2.719   2.485
  861SOL    HW2 4591   8.673   2.717   2.598
  862SOL     OW 4592  10.353   7.227   0.364
  862SOL    HW1 4593  10.370   7.147   0.314
  862SOL    HW2 4594  10.289   7.200   0.429
  863SOL     OW 4595   4.880  10.246   6.235
  863SOL    HW1 4596   4.792  10.247   6.198
  863SOL    HW2 4597   4.900  10.153   6.247
  864SOL     OW 4598   2.102   1.312   8.418
  864SOL    HW1 4599   2.070   1.250   8.352
  864SOL    HW2 4600   2.197   1.309   8.408
  865SOL     OW 4601  10.534  10.708  10.304
  865SOL    HW1 4602  10.606  10.661  10.262
  865SOL    HW2 4603  10.478  10.639  10.339
  866SOL     OW 4604   9.749   5.874   8.082
  866SOL    HW1 4605   9.805   5.945   8.112
  866SOL    HW2 4606   9.719   5.902   7.995
  867SOL     OW 4607   1.063   6.393   3.234
  867SOL    HW1 4608   1.071   6.488   3.225
  867SOL    HW2 4609   1.153   6.361   3.229
  868SOL     OW 4610   3.185   6.235   5.139
  868SOL    HW1 4611   3.220   6.147   5.155
  868SOL    HW2 4612   3.196   6.247   5.044
  869SOL     OW 4613   0.341   1.902   8.019
  869SOL    HW1 4614   0.257   1.858   8.036
  869SOL    HW2 4615   0.407   1.841   8.052
  870SOL     OW 4616   4.392   5.707   5.433
  870SOL    HW1 4617   4.368   5.670   5.348
  870SOL    HW2 4618   4.309   5.736   5.471
  871SOL     OW 4619  10.940   4.049   5.151
  871SOL    HW1 4620  11.031   4.075   5.135
  871SOL    HW2 4621  10.919   3.993   5.076
  872SOL     OW 4622   5.150  10.864   4.975
  872SOL    HW1 4623   5.191  10.926   5.035
  872SOL    HW2 4624   5.114  10.796   5.031
  873SOL     OW 4625   3.012   2.191   2.215
  873SOL    HW1 4626   2.930   2.225   2.181
  873SOL    HW2 4627   3.001   2.193   2.310
  874SOL     OW 4628   1.605   1.888   1.747
  874SOL    HW1 4629   1.556   1.901   1.666
  874SOL    HW2 4630   1.577   1.959   1.803
  875SOL     OW 4631   2.399   8.881   6.977
  875SOL    HW1 4632   2.430   8.932   7.052
  875SOL    HW2 4633   2.478   8.864   6.925
  876SOL     OW 4634   0.561   8.611   2.594
  876SOL    HW1 4635   0.568   8.624   2.499
  876SOL    HW2 4636   0.478   8.652   2.618
  877SOL     OW 4637   2.605   8.005   3.522
  877SOL    HW1 4638   2.531   7.947   3.538
  877SOL    HW2 4639   2.681   7.954   3.551
  878SOL     OW 4640   7.735   2.723   0.791
  878SOL    HW1 4641   7.823   2.759   0.799
  878SOL    HW2 4642   7.746   2.629   0.809
  879SOL     OW 4643  10.902   4.686   4.883
  879SOL    HW1 4644  10.824   4.714   4.930
  879SOL    HW2 4645  10.869   4.654   4.799
  880SOL     OW 4646  10.422   2.793   1.789
  880SOL    HW1 4647  10.460   2.828   1.708
  880SOL    HW2 4648  10.498   2.773   1.844
  881SOL     OW 4649   5.932   8.819   2.580
  881SOL    HW1 4650   6.001   8.761   2.612
  881SOL    HW2 4651   5.975   8.903   2.568
  882SOL     OW 4652   7.082   4.099   7.134
  882SOL    HW1 4653   7.104   4.022   7.080
  882SOL    HW2 4654   6.987   4.104   7.131
  883SOL     OW 4655   1.202   3.313   6.919
  883SOL    HW1 4656   1.229   3.389   6.868
  883SOL    HW2 4657   1.151   3.349   6.991
  884SOL     OW 4658   7.495   8.931   1.578
  884SOL    HW1 4659   7.465   9.007   1.627
  884SOL    HW2 4660   7.587   8.949   1.559
  885SOL     OW 4661   9.914   9.122   0.975
  885SOL    HW1 4662   9.994   9.175   0.972
  885SOL    HW2 4663   9.902   9.091   0.885
  886SOL     OW 4664  10.544   5.812   7.928
  886SOL    HW1 4665  10.631   5.850   7.918
  886SOL    HW2 4666  10.490   5.883   7.961
  887SOL     OW 4667   0.293  10.724   5.351
  887SOL    HW1 4668   0.235  10.701   5.278
  887SOL    HW2 4669   0.242  10.702   5.429
  888SOL     OW 4670   5.307   0.306   8.606
  888SOL    HW1 4671   5.384   0.254   8.581
  888SOL    HW2 4672   5.318   0.389   8.559
  889SOL     OW 4673   1.333   7.427   2.014
  889SOL    HW1 4674   1.418   7.393   1.986
  889SOL    HW2 4675   1.340   7.435   2.109
  890SOL     OW 4676  10.683   9.096   6.961
  890SOL    HW1 4677  10.759   9.151   6.979
  890SOL    HW2 4678  10.714   9.035   6.893
  891SOL     OW 4679   4.425   1.696   3.328
  891SOL    HW1 4680   4.470   1.636   3.387
  891SOL    HW2 4681   4.418   1.647   3.245
  892SOL     OW 4682   8.041   3.486   9.715
  892SOL    HW1 4683   7.996   3.449   9.791
  892SOL    HW2 4684   8.132   3.457   9.724
  893SOL     OW 4685  10.005   5.992  10.473
  893SOL    HW1 4686  10.070   6.056  10.444
  893SOL    HW2 4687  10.030   5.910  10.429
  894SOL     OW 4688   1.222   3.508   5.931
  894SOL    HW1 4689   1.245   3.415   5.933
  894SOL    HW2 4690   1.218   3.530   5.838
  895SOL     OW 4691  10.425   2.155   6.586
  895SOL    HW1 4692  10.389   2.236   6.621
  895SOL    HW2 4693  10.477   2.119   6.658
  896SOL     OW 4694   1.327  10.633   4.275
  896SOL    HW1 4695   1.277  10.656   4.353
  896SOL    HW2 4696   1.397  10.698   4.271
  897SOL     OW 4697   4.104   6.498   7.875
  897SOL    HW1 4698   4.183   6.461   7.834
  897SOL    HW2 4699   4.102   6.458   7.962
  898SOL     OW 4700  10.402   5.473   9.838
  898SOL    HW1 4701  10.321   5.519   9.816
  898SOL    HW2 4702  10.385   5.382   9.814
  899SOL     OW 4703   1.276   1.164   9.751
  899SOL    HW1 4704   1.218   1.115   9.809
  899SOL    HW2 4705   1.229   1.168   9.668
  900SOL     OW 4706   2.036  10.484   4.893
  900SOL    HW1 4707   1.969  10.513   4.955
  900SOL    HW2 4708   2.105  10.550   4.899
  901SOL     OW 4709  10.572   8.802   9.070
  901SOL    HW1 4710  10.536   8.805   9.158
  901SOL    HW2 4711  10.496   8.786   9.013
  902SOL     OW 4712   3.360   3.715   9.560
  902SOL    HW1 4713   3.367   3.795   9.509
  902SOL    HW2 4714   3.349   3.646   9.494
  903SOL     OW 4715  10.707   2.277   8.818
  903SOL    HW1 4716  10.793   2.316   8.834
  903SOL    HW2 4717  10.666   2.273   8.904
  904SOL     OW 4718   0.470   6.890   6.487
  904SOL    HW1 4719   0.456   6.850   6.401
  904SOL    HW2 4720   0.423   6.973   6.482
  905SOL     OW 4721   9.425  10.427   8.368
  905SOL    HW1 4722   9.411  10.477   8.287
  905SOL    HW2 4723   9.470  10.488   8.426
  906SOL     OW 4724   1.038   1.506   4.905
  906SOL    HW1 4725   1.101   1.563   4.861
  906SOL    HW2 4726   0.953   1.545   4.886
  907SOL     OW 4727   1.496   3.596   5.922
  907SOL    HW1 4728   1.413   3.615   5.878
  907SOL    HW2 4729   1.490   3.503   5.944
  908SOL     OW 4730  11.027   5.344   4.134
  908SOL    HW1 4731  11.064   5.420   4.177
  908SOL    HW2 4732  10.972   5.302   4.200
  909SOL     OW 4733   9.668  10.587   7.034
  909SOL    HW1 4734   9.595  10.525   7.036
  909SOL    HW2 4735   9.662  10.635   7.116
  910SOL     OW 4736   7.138   6.977   5.456
  910SOL    HW1 4737   7.198   6.902   5.449
  910SOL    HW2 4738   7.151   7.024   5.374
  911SOL     OW 4739   2.120   7.187   8.187
  911SOL    HW1 4740   2.032   7.199   8.223
  911SOL    HW2 4741   2.124   7.094   8.163
  912SOL     OW 4742   6.646   5.540   0.072
  912SOL    HW1 4743   6.558   5.550   0.107
  912SOL    HW2 4744   6.656   5.613   0.011
  913SOL     OW 4745   2.899   3.953   6.327
  913SOL    HW1 4746   2.933   4.017   6.264
  913SOL    HW2 4747   2.870   3.879   6.273
  914SOL     OW 4748   3.004   4.676  10.706
  914SOL    HW1 4749   3.096   4.700  10.718
  914SOL    HW2 4750   2.971   4.662  10.794
  915SOL     OW 4751   3.197   1.545   6.836
  915SOL    HW1 4752   3.258   1.543   6.910
  915SOL    HW2 4753   3.244   1.501   6.765
  916SOL     OW 4754   7.249   1.253   1.044
  916SOL    HW1 4755   7.311   1.324   1.030
  916SOL    HW2 4756   7.197   1.250   0.964
  917SOL     OW 4757   5.396   2.524  11.042
  917SOL    HW1 4758   5.358   2.476  10.968
  917SOL    HW2 4759   5.401   2.614  11.011
  918SOL     OW 4760   7.245  10.143   6.143
  918SOL    HW1 4761   7.230  10.120   6.234
  918SOL    HW2 4762   7.334  10.177   6.141
  919SOL     OW 4763   4.901   3.099   7.271
  919SOL    HW1 4764   4.918   3.123   7.180
  919SOL    HW2 4765   4.810   3.125   7.286
  920SOL     OW 4766   0.080   3.407   1.491
  920SOL    HW1 4767   0.041   3.492   1.509
  920SOL    HW2 4768   0.154   3.401   1.550
  921SOL     OW 4769   5.185   0.424   3.036
  921SOL    HW1 4770   5.145   0.436   2.949
  921SOL    HW2 4771   5.123   0.368   3.083
  922SOL     OW 4772   7.284   2.612   4.441
  922SOL    HW1 4773   7.297   2.561   4.360
  922SOL    HW2 4774   7.285   2.703   4.412
  923SOL     OW 4775  10.854   0.400   7.638
  923SOL    HW1 4776  10.765   0.400   7.673
  923SOL    HW2 4777  10.863   0.485   7.595
  924SOL     OW 4778  10.162   2.982   4.338
  924SOL    HW1 4779  10.103   3.053   4.362
  924SOL    HW2 4780  10.246   3.024   4.319
  925SOL     OW 4781   0.712   1.023   4.135
  925SOL    HW1 4782   0.669   1.081   4.072
  925SOL    HW2 4783   0.730   1.078   4.210
  926SOL     OW 4784   0.912   1.301   7.811
  926SOL    HW1 4785   1.002   1.312   7.842
  926SOL    HW2 4786   0.866   1.261   7.884
  927SOL     OW 4787   0.899   9.893   9.478
  927SOL    HW1 4788   0.985   9.909   9.438
  927SOL    HW2 4789   0.914   9.821   9.539
  928SOL     OW 4790   2.076   1.963   1.790
  928SOL    HW1 4791   1.985   1.947   1.816
  928SOL    HW2 4792   2.099   2.046   1.832
  929SOL     OW 4793   1.288  10.843   5.188
  929SOL    HW1 4794   1.236  10.861   5.110
  929SOL    HW2 4795   1.253  10.760   5.221
  930SOL     OW 4796   2.025   6.549   2.229
  930SOL    HW1 4797   2.075   6.562   2.148
  930SOL    HW2 4798   2.090   6.555   2.299
  931SOL     OW 4799   5.997   1.861   1.061
  931SOL    HW1 4800   6.044   1.923   1.005
  931SOL    HW2 4801   5.952   1.916   1.125
  932SOL     OW 4802   1.071   6.114   0.462
  932SOL    HW1 4803   0.996   6.054   0.455
  932SOL    HW2 4804   1.133   6.081   0.397
  933SOL     OW 4805   3.901  10.747   5.997
  933SOL    HW1 4806   3.828  10.707   5.949
  933SOL    HW2 4807   3.967  10.764   5.930
  934SOL     OW 4808   0.141   7.457   7.390
  934SOL    HW1 4809   0.226   7.416   7.378
  934SOL    HW2 4810   0.135   7.520   7.318
  935SOL     OW 4811   7.269   3.728   2.472
  935SOL    HW1 4812   7.187   3.756   2.512
  935SOL    HW2 4813   7.337   3.754   2.534
  936SOL     OW 4814   5.356   4.205   3.016
  936SOL    HW1 4815   5.369   4.199   3.110
  936SOL    HW2 4816   5.377   4.296   2.994
  937SOL     OW 4817   2.110   0.209   3.504
  937SOL    HW1 4818   2.165   0.238   3.431
  937SOL    HW2 4819   2.124   0.114   3.508
  938SOL     OW 4820   8.461   9.085   7.045
  938SOL    HW1 4821   8.537   9.075   7.102
  938SOL    HW2 4822   8.418   8.999   7.047
  939SOL     OW 4823   2.179   9.466  10.879
  939SOL    HW1 4824   2.085   9.465  10.863
  939SOL    HW2 4825   2.209   9.380  10.848
  940SOL     OW 4826   9.404   1.110   1.388
  940SOL    HW1 4827   9.364   1.036   1.434
  940SOL    HW2 4828   9.388   1.185   1.445
  941SOL     OW 4829   6.727   9.923   6.523
  941SOL    HW1 4830   6.780  10.001   6.506
  941SOL    HW2 4831   6.723   9.917   6.618
  942SOL     OW 4832   4.961   1.805   8.690
  942SOL    HW1 4833   4.887   1.752   8.659
  942SOL    HW2 4834   5.039   1.755   8.664
  943SOL     OW 4835   2.159   9.484   9.201
  943SOL    HW1 4836   2.242   9.474   9.248
  943SOL    HW2 4837   2.116   9.399   9.211
  944SOL     OW 4838   4.769   7.102   8.769
  944SOL    HW1 4839   4.734   7.028   8.718
  944SOL    HW2 4840   4.831   7.061   8.830
  945SOL     OW 4841   9.806  10.658   2.836
  945SOL    HW1 4842   9.779  10.626   2.750
  945SOL    HW2 4843   9.888  10.706   2.819
  946SOL     OW 4844   7.164   4.817   7.140
  946SOL    HW1 4845   7.208   4.889   7.095
  946SOL    HW2 4846   7.109   4.859   7.206
  947SOL     OW 4847   1.169   5.540   7.868
  947SOL    HW1 4848   1.253   5.574   7.899
  947SOL    HW2 4849   1.122   5.616   7.835
  948SOL     OW 4850   8.991   0.630   7.682
  948SOL    HW1 4851   9.017   0.572   7.610
  948SOL    HW2 4852   8.930   0.692   7.641
  949SOL     OW 4853   6.119   8.880   7.816
  949SOL    HW1 4854   6.215   8.884   7.822
  949SOL    HW2 4855   6.091   8.971   7.811
  950SOL     OW 4856   0.332   6.509   9.808
  950SOL    HW1 4857   0.348   6.598   9.777
  950SOL    HW2 4858   0.318   6.517   9.902
  951SOL     OW 4859   2.861   7.896   8.110
  951SOL    HW1 4860   2.773   7.932   8.100
  951SOL    HW2 4861   2.868   7.876   8.203
  952SOL     OW 4862   3.102  10.557   9.657
  952SOL    HW1 4863   3.158  10.623   9.615
  952SOL    HW2 4864   3.148  10.535   9.738
  953SOL     OW 4865   1.219  10.743  10.658
  953SOL    HW1 4866   1.246  10.662  10.701
  953SOL    HW2 4867   1.300  10.792  10.645
  954SOL     OW 4868  10.580   1.243   3.839
  954SOL    HW1 4869  10.609   1.285   3.758
  954SOL    HW2 4870  10.485   1.256   3.840
  955SOL     OW 4871   3.037   7.067   6.652
  955SOL    HW1 4872   2.999   7.045   6.567
  955SOL    HW2 4873   2.981   7.023   6.715
  956SOL     OW 4874   2.214   1.074   8.578
  956SOL    HW1 4875   2.225   1.067   8.483
  956SOL    HW2 4876   2.258   1.155   8.601
  957SOL     OW 4877   9.328   1.114   7.439
  957SOL    HW1 4878   9.256   1.139   7.381
  957SOL    HW2 4879   9.406   1.150   7.397
  958SOL     OW 4880   1.980   7.840  11.023
  958SOL    HW1 4881   2.056   7.881  10.982
  958SOL    HW2 4882   1.981   7.872  11.113
  959SOL     OW 4883   2.867   2.270   3.051
  959SOL    HW1 4884   2.854   2.298   2.960
  959SOL    HW2 4885   2.957   2.238   3.053
  960SOL     OW 4886   5.379   8.345   1.132
  960SOL    HW1 4887   5.365   8.263   1.084
  960SOL    HW2 4888   5.385   8.318   1.223
  961SOL     OW 4889  10.660   9.540   6.245
  961SOL    HW1 4890  10.656   9.572   6.155
  961SOL    HW2 4891  10.624   9.451   6.240
  962SOL     OW 4892   7.958  10.268   9.764
  962SOL    HW1 4893   7.997  10.345   9.723
  962SOL    HW2 4894   7.870  10.295   9.790
  963SOL     OW 4895   0.167   7.341  10.198
  963SOL    HW1 4896   0.177   7.336  10.293
  963SOL    HW2 4897   0.256   7.331  10.164
  964SOL     OW 4898   2.430   6.714   6.975
  964SOL    HW1 4899   2.397   6.676   7.056
  964SOL    HW2 4900   2.405   6.650   6.907
  965SOL     OW 4901   0.497   1.594   7.247
  965SOL    HW1 4902   0.541   1.675   7.224
  965SOL    HW2 4903   0.470   1.606   7.338
  966SOL     OW 4904   7.175   1.561   2.137
  966SOL    HW1 4905   7.234   1.529   2.068
  966SOL    HW2 4906   7.091   1.571   2.093
  967SOL     OW 4907  10.019   8.400   9.347
  967SOL    HW1 4908  10.019   8.374   9.255
  967SOL    HW2 4909   9.933   8.374   9.379
  968SOL     OW 4910   5.546   6.001   2.700
  968SOL    HW1 4911   5.544   5.972   2.608
  968SOL    HW2 4912   5.562   5.921   2.749
  969SOL     OW 4913   9.506   6.667  11.020
  969SOL    HW1 4914   9.600   6.682  11.028
  969SOL    HW2 4915   9.467   6.724  11.086
  970SOL     OW 4916   3.361   3.531  11.015
  970SOL    HW1 4917   3.341   3.533  10.921
  970SOL    HW2 4918   3.389   3.620  11.035
  971SOL     OW 4919   7.912   1.776  10.948
  971SOL    HW1 4920   7.883   1.718  11.018
  971SOL    HW2 4921   7.832   1.815  10.914
  972SOL     OW 4922   1.789   2.382  10.407
  972SOL    HW1 4923   1.791   2.474  10.381
  972SOL    HW2 4924   1.696   2.359  10.408
  973SOL     OW 4925  11.079   9.723   0.268
  973SOL    HW1 4926  11.111   9.661   0.333
  973SOL    HW2 4927  11.148   9.789   0.262
  974SOL     OW 4928   2.885   7.163   1.074
  974SOL    HW1 4929   2.800   7.158   1.116
  974SOL    HW2 4930   2.899   7.256   1.060
  975SOL     OW 4931   3.899   3.231   2.336
  975SOL    HW1 4932   3.906   3.273   2.421
  975SOL    HW2 4933   3.807   3.207   2.328
  976SOL     OW 4934   0.444   1.471  10.505
  976SOL    HW1 4935   0.430   1.480  10.410
  976SOL    HW2 4936   0.410   1.552  10.542
  977SOL     OW 4937   3.958   8.428  10.467
  977SOL    HW1 4938   3.882   8.397  10.417
  977SOL    HW2 4939   3.958   8.523  10.454
  978SOL     OW 4940  11.095   4.032   7.443
  978SOL    HW1 4941  11.160   3.963   7.430
  978SOL    HW2 4942  11.017   3.999   7.398
  979SOL     OW 4943   2.238   9.036   2.578
  979SOL    HW1 4944   2.174   9.032   2.648
  979SOL    HW2 4945   2.244   8.945   2.546
  980SOL     OW 4946   6.137   2.636   9.675
  980SOL    HW1 4947   6.159   2.672   9.589
  980SOL    HW2 4948   6.222   2.611   9.712
  981SOL     OW 4949   3.402   0.425   1.234
  981SOL    HW1 4950   3.418   0.413   1.140
  981SOL    HW2 4951   3.323   0.479   1.238
  982SOL     OW 4952   7.560   9.449   2.877
  982SOL    HW1 4953   7.532   9.463   2.967
  982SOL    HW2 4954   7.574   9.354   2.871
  983SOL     OW 4955   8.577   8.665   2.505
  983SOL    HW1 4956   8.579   8.719   2.584
  983SOL    HW2 4957   8.663   8.677   2.465
  984SOL     OW 4958   0.315   0.216   5.599
  984SOL    HW1 4959   0.315   0.126   5.565
  984SOL    HW2 4960   0.328   0.270   5.521
  985SOL     OW 4961  10.910   4.757   7.857
  985SOL    HW1 4962  10.891   4.848   7.836
  985SOL    HW2 4963  11.003   4.756   7.879
  986SOL     OW 4964   6.541   8.838   5.186
  986SOL    HW1 4965   6.526   8.838   5.091
  986SOL    HW2 4966   6.636   8.825   5.195
  987SOL     OW 4967  10.707   7.566   0.558
  987SOL    HW1 4968  10.656   7.486   0.544
  987SOL    HW2 4969  10.699   7.614   0.475
  988SOL     OW 4970   2.346   4.560   9.618
  988SOL    HW1 4971   2.363   4.466   9.623
  988SOL    HW2 4972   2.335   4.587   9.709
  989SOL     OW 4973   3.807   9.801   7.990
  989SOL    HW1 4974   3.846   9.865   8.048
  989SOL    HW2 4975   3.810   9.719   8.039
  990SOL     OW 4976   8.224   4.833   1.646
  990SOL    HW1 4977   8.200   4.766   1.582
  990SOL    HW2 4978   8.306   4.802   1.684
  991SOL     OW 4979  11.033   8.854   2.587
  991SOL    HW1 4980  10.977   8.776   2.596
  991SOL    HW2 4981  10.989   8.908   2.521
  992SOL     OW 4982   2.345   3.864   4.025
  992SOL    HW1 4983   2.354   3.859   4.120
  992SOL    HW2 4984   2.407   3.932   3.998
  993SOL     OW 4985   7.312   4.421  10.537
  993SOL    HW1 4986   7.358   4.478  10.475
  993SOL    HW2 4987   7.375   4.408  10.608
  994SOL     OW 4988   0.339  10.149   1.558
  994SOL    HW1 4989   0.256  10.196   1.546
  994SOL    HW2 4990   0.393  10.176   1.484
  995SOL     OW 4991   3.054   8.167   5.493
  995SOL    HW1 4992   3.125   8.223   5.461
  995SOL    HW2 4993   3.089   8.128   5.573
  996SOL     OW 4994   0.637   7.573   1.173
  996SOL    HW1 4995   0.708   7.562   1.109
  996SOL    HW2 4996   0.581   7.496   1.159
  997SOL     OW 4997   8.585   0.965   4.690
  997SOL    HW1 4998   8.597   1.032   4.757
  997SOL    HW2 4999   8.537   1.009   4.620
  998SOL     OW 5000   2.959   5.819  10.286
  998SOL    HW1 5001   2.983   5.736  10.327
  998SOL    HW2 5002   3.039   5.871  10.289
  999SOL     OW 5003   1.545   7.206   6.491
  999SOL    HW1 5004   1.591   7.142   6.436
  999SOL    HW2 5005   1.494   7.258   6.429
 1000SOL     OW 5006   2.679   1.142   1.065
 1000SOL    HW1 5007   2.764   1.184   1.076
 1000SOL    HW2 5008   2.617   1.214   1.055
 1001SOL     OW 5009   0.821   8.914   9.945
 1001SOL    HW1 5010   0.778   8.955   9.870
 1001SOL    HW2 5011   0.753   8.859   9.984
 1002SOL     OW 5012   9.089   9.954   0.224
 1002SOL    HW1 5013   9.030   9.980   0.294
 1002SOL    HW2 5014   9.130  10.035   0.195
 1003SOL     OW 5015   2.871   1.572   8.951
 1003SOL    HW1 5016   2.875   1.511   9.024
 1003SOL    HW2 5017   2.778   1.576   8.928
 1004SOL     OW 5018   4.480   5.063   3.401
 1004SOL    HW1 5019   4.403   5.109   3.434
 1004SOL    HW2 5020   4.510   5.009   3.474
 1005SOL     OW 5021  10.373   2.011   4.382
 1005SOL    HW1 5022  10.336   2.080   4.437
 1005SOL    HW2 5023  10.303   1.989   4.320
 1006SOL     OW 5024   6.812  10.473   5.313
 1006SOL    HW1 5025   6.853  10.425   5.241
 1006SOL    HW2 5026   6.813  10.564   5.284
 1007SOL     OW 5027  10.426   7.975   9.136
 1007SOL    HW1 5028  10.437   7.977   9.231
 1007SOL    HW2 5029  10.512   8.000   9.101
 1008SOL     OW 5030   7.240   0.608   5.252
 1008SOL    HW1 5031   7.216   0.614   5.159
 1008SOL    HW2 5032   7.331   0.579   5.251
 1009SOL     OW 5033   4.866   8.791  10.608
 1009SOL    HW1 5034   4.960   8.775  10.612
 1009SOL    HW2 5035   4.858   8.885  10.591
 1010SOL     OW 5036  10.558   1.367   3.340
 1010SOL    HW1 5037  10.505   1.429   3.290
 1010SOL    HW2 5038  10.644   1.409   3.347
 1011SOL     OW 5039   7.415   8.547   7.689
 1011SOL    HW1 5040   7.420   8.456   7.660
 1011SOL    HW2 5041   7.496   8.561   7.738
 1012SOL     OW 5042   8.684   0.916  10.296
 1012SOL    HW1 5043   8.621   0.850  10.326
 1012SOL    HW2 5044   8.741   0.868  10.236
 1013SOL     OW 5045   7.010   7.557   6.247
 1013SOL    HW1 5046   6.941   7.516   6.299
 1013SOL    HW2 5047   7.063   7.483   6.216
 1014SOL     OW 5048   8.987   3.407   9.687
 1014SOL    HW1 5049   8.904   3.378   9.649
 1014SOL    HW2 5050   8.964   3.479   9.745
 1015SOL     OW 5051  10.224   0.485   5.675
 1015SOL    HW1 5052  10.142   0.451   5.638
 1015SOL    HW2 5053  10.273   0.407   5.701
 1016SOL     OW 5054   9.410  10.403   5.417
 1016SOL    HW1 5055   9.400  10.308   5.428
 1016SOL    HW2 5056   9.327  10.439   5.447
 1017SOL     OW 5057   8.527  11.027   3.453
 1017SOL    HW1 5058   8.511  10.939   3.420
 1017SOL    HW2 5059   8.610  11.053   3.412
 1018SOL     OW 5060   8.067   6.259   1.027
 1018SOL    HW1 5061   8.054   6.314   0.950
 1018SOL    HW2 5062   8.045   6.315   1.101
 1019SOL     OW 5063   3.067   8.070   8.443
 1019SOL    HW1 5064   2.974   8.050   8.451
 1019SOL    HW2 5065   3.105   7.991   8.403
 1020SOL     OW 5066   6.190   7.119   3.020
 1020SOL    HW1 5067   6.215   7.147   2.932
 1020SOL    HW2 5068   6.096   7.134   3.024
 1021SOL     OW 5069   1.519   7.723   6.263
 1021SOL    HW1 5070   1.571   7.688   6.335
 1021SOL    HW2 5071   1.501   7.647   6.207
 1022SOL     OW 5072   8.747   8.685   6.582
 1022SOL    HW1 5073   8.665   8.647   6.613
 1022SOL    HW2 5074   8.731   8.704   6.489
 1023SOL     OW 5075  10.574   1.005   2.970
 1023SOL    HW1 5076  10.614   1.075   2.918
 1023SOL    HW2 5077  10.587   1.032   3.061
 1024SOL     OW 5078  11.014   2.532   8.517
 1024SOL    HW1 5079  11.071   2.472   8.467
 1024SOL    HW2 5080  11.073   2.599   8.550
 1025SOL     OW 5081   2.649   5.670   9.621
 1025SOL    HW1 5082   2.599   5.687   9.541
 1025SOL    HW2 5083   2.671   5.757   9.654
 1026SOL     OW 5084   9.322   9.848   8.899
 1026SOL    HW1 5085   9.233   9.880   8.916
 1026SOL    HW2 5086   9.376   9.927   8.898
 1027SOL     OW 5087   3.343   7.022  10.135
 1027SOL    HW1 5088   3.278   6.989  10.197
 1027SOL    HW2 5089   3.333   6.966  10.058
 1028SOL     OW 5090   2.390   0.241   1.224
 1028SOL    HW1 5091   2.307   0.265   1.183
 1028SOL    HW2 5092   2.372   0.241   1.318
 1029SOL     OW 5093   0.975   7.209   0.525
 1029SOL    HW1 5094   0.994   7.283   0.467
 1029SOL    HW2 5095   0.880   7.199   0.520
 1030SOL     OW 5096   7.641  10.403   8.754
 1030SOL    HW1 5097   7.691  10.470   8.800
 1030SOL    HW2 5098   7.699  10.374   8.683
 1031SOL     OW 5099  11.055  10.776   9.212
 1031SOL    HW1 5100  11.037  10.745   9.123
 1031SOL    HW2 5101  11.082  10.697   9.259
 1032SOL     OW 5102  10.400   2.710   4.783
 1032SOL    HW1 5103  10.416   2.621   4.749
 1032SOL    HW2 5104  10.371   2.760   4.706
 1033SOL     OW 5105   4.738   2.586   0.717
 1033SOL    HW1 5106   4.765   2.555   0.803
 1033SOL    HW2 5107   4.697   2.671   0.733
 1034SOL     OW 5108   9.126   1.777   8.946
 1034SOL    HW1 5109   9.217   1.750   8.960
 1034SOL    HW2 5110   9.077   1.695   8.942
 1035SOL     OW 5111   2.147   6.440   0.656
 1035SOL    HW1 5112   2.165   6.408   0.744
 1035SOL    HW2 5113   2.199   6.520   0.648
 1036SOL     OW 5114   3.959  10.750   1.657
 1036SOL    HW1 5115   3.994  10.839   1.666
 1036SOL    HW2 5116   3.906  10.736   1.735
 1037SOL     OW 5117   9.753   0.532   7.062
 1037SOL    HW1 5118   9.693   0.470   7.104
 1037SOL    HW2 5119   9.755   0.607   7.121
 1038SOL     OW 5120  10.566   6.542   1.274
 1038SOL    HW1 5121  10.547   6.491   1.352
 1038SOL    HW2 5122  10.488   6.532   1.219
 1039SOL     OW 5123   4.442  10.516  10.749
 1039SOL    HW1 5124   4.515  10.576  10.733
 1039SOL    HW2 5125   4.425  10.477  10.663
 1040SOL     OW 5126   4.639   9.408   8.031
 1040SOL    HW1 5127   4.574   9.464   7.989
 1040SOL    HW2 5128   4.632   9.324   7.985
 1041SOL     OW 5129  10.747   3.384   0.212
 1041SOL    HW1 5130  10.791   3.447   0.155
 1041SOL    HW2 5131  10.818   3.343   0.262
 1042SOL     OW 5132   9.425   5.054  10.212
 1042SOL    HW1 5133   9.344   5.099  10.188
 1042SOL    HW2 5134   9.457   5.100  10.289
 1043SOL     OW 5135   6.422  10.968  10.806
 1043SOL    HW1 5136   6.466  11.011  10.732
 1043SOL    HW2 5137   6.432  10.874  10.789
 1044SOL     OW 5138   6.929  10.013  10.684
 1044SOL    HW1 5139   6.980  10.031  10.763
 1044SOL    HW2 5140   6.976   9.941  10.641
 1045SOL     OW 5141   5.632   2.109   9.074
 1045SOL    HW1 5142   5.621   2.177   9.008
 1045SOL    HW2 5143   5.714   2.066   9.050
 1046SOL     OW 5144   3.449   4.920   3.618
 1046SOL    HW1 5145   3.523   4.968   3.654
 1046SOL    HW2 5146   3.372   4.965   3.651
 1047SOL     OW 5147   1.821   3.038   3.846
 1047SOL    HW1 5148   1.876   3.073   3.916
 1047SOL    HW2 5149   1.776   2.963   3.885
 1048SOL     OW 5150   8.933   7.031   6.015
 1048SOL    HW1 5151   9.018   7.022   6.058
 1048SOL    HW2 5152   8.913   6.943   5.982
 1049SOL     OW 5153   3.971   0.815   8.523
 1049SOL    HW1 5154   4.024   0.858   8.590
 1049SOL    HW2 5155   3.925   0.886   8.479
 1050SOL     OW 5156   8.517   3.965   2.245
 1050SOL    HW1 5157   8.534   3.871   2.256
 1050SOL    HW2 5158   8.538   4.004   2.329
 1051SOL     OW 5159   3.189   7.056   9.436
 1051SOL    HW1 5160   3.105   7.038   9.393
 1051SOL    HW2 5161   3.250   7.068   9.363
 1052SOL     OW 5162   2.445   1.975   5.144
 1052SOL    HW1 5163   2.351   1.968   5.160
 1052SOL    HW2 5164   2.477   2.038   5.209
 1053SOL     OW 5165   3.732   2.545   8.423
 1053SOL    HW1 5166   3.773   2.628   8.401
 1053SOL    HW2 5167   3.708   2.553   8.515
 1054SOL     OW 5168   1.136   0.390   6.276
 1054SOL    HW1 5169   1.041   0.383   6.270
 1054SOL    HW2 5170   1.152   0.482   6.296
 1055SOL     OW 5171   8.503   7.877   9.513
 1055SOL    HW1 5172   8.418   7.902   9.476
 1055SOL    HW2 5173   8.555   7.849   9.437
 1056SOL     OW 5174   6.338   8.857   5.855
 1056SOL    HW1 5175   6.402   8.889   5.791
 1056SOL    HW2 5176   6.379   8.872   5.940
 1057SOL     OW 5177   5.074   4.109   6.740
 1057SOL    HW1 5178   4.991   4.066   6.719
 1057SOL    HW2 5179   5.097   4.076   6.827
 1058SOL     OW 5180   8.108   2.883  10.316
 1058SOL    HW1 5181   8.088   2.857  10.226
 1058SOL    HW2 5182   8.154   2.807  10.353
 1059SOL     OW 5183   4.443   2.226   2.296
 1059SOL    HW1 5184   4.517   2.281   2.270
 1059SOL    HW2 5185   4.382   2.286   2.338
 1060SOL     OW 5186  10.709   4.650  10.544
 1060SOL    HW1 5187  10.804   4.646  10.554
 1060SOL    HW2 5188  10.682   4.558  10.540
 1061SOL     OW 5189   2.590   7.119   5.469
 1061SOL    HW1 5190   2.620   7.115   5.560
 1061SOL    HW2 5191   2.555   7.031   5.451
 1062SOL     OW 5192   8.086   0.381   1.490
 1062SOL    HW1 5193   8.083   0.285   1.485
 1062SOL    HW2 5194   8.179   0.402   1.497
 1063SOL     OW 5195   7.585   2.966   5.870
 1063SOL    HW1 5196   7.521   3.031   5.842
 1063SOL    HW2 5197   7.537   2.883   5.869
 1064SOL     OW 5198   2.515   0.369   6.154
 1064SOL    HW1 5199   2.488   0.422   6.079
 1064SOL    HW2 5200   2.436   0.360   6.207
 1065SOL     OW 5201   2.259   8.265   0.318
 1065SOL    HW1 5202   2.235   8.304   0.234
 1065SOL    HW2 5203   2.276   8.173   0.298
 1066SOL     OW 5204   0.473   5.788  10.147
 1066SOL    HW1 5205   0.432   5.793  10.060
 1066SOL    HW2 5206   0.531   5.711  10.142
 1067SOL     OW 5207   2.584   9.799   7.769
 1067SOL    HW1 5208   2.496   9.800   7.732
 1067SOL    HW2 5209   2.622   9.717   7.737
 1068SOL     OW 5210   1.151   3.851   8.703
 1068SOL    HW1 5211   1.057   3.867   8.712
 1068SOL    HW2 5212   1.168   3.864   8.609
 1069SOL     OW 5213   7.113  10.551   9.701
 1069SOL    HW1 5214   7.019  10.566   9.702
 1069SOL    HW2 5215   7.136  10.548   9.608
 1070SOL     OW 5216   8.792   6.373   2.720
 1070SOL    HW1 5217   8.821   6.355   2.630
 1070SOL    HW2 5218   8.825   6.299   2.771
 1071SOL     OW 5219   9.394   8.900   9.706
 1071SOL    HW1 5220   9.458   8.944   9.650
 1071SOL    HW2 5221   9.447   8.851   9.769
 1072SOL     OW 5222   1.547   2.666   7.152
 1072SOL    HW1 5223   1.570   2.758   7.144
 1072SOL    HW2 5224   1.451   2.665   7.153
 1073SOL     OW 5225   1.118   8.096   6.264
 1073SOL    HW1 5226   1.163   8.177   6.288
 1073SOL    HW2 5227   1.189   8.033   6.248
 1074SOL     OW 5228  10.997   7.308   8.229
 1074SOL    HW1 5229  10.938   7.232   8.232
 1074SOL    HW2 5230  10.945   7.377   8.190
 1075SOL     OW 5231   4.101   4.779   3.872
 1075SOL    HW1 5232   4.074   4.733   3.792
 1075SOL    HW2 5233   4.031   4.841   3.889
 1076SOL     OW 5234   8.747   0.772   0.725
 1076SOL    HW1 5235   8.830   0.729   0.747
 1076SOL    HW2 5236   8.770   0.864   0.713
 1077SOL     OW 5237   3.473   6.452   9.298
 1077SOL    HW1 5238   3.470   6.359   9.323
 1077SOL    HW2 5239   3.550   6.458   9.241
 1078SOL     OW 5240   9.497   0.342   9.382
 1078SOL    HW1 5241   9.455   0.283   9.318
 1078SOL    HW2 5242   9.591   0.328   9.369
 1079SOL     OW 5243   1.495   3.920   5.817
 1079SOL    HW1 5244   1.537   3.839   5.847
 1079SOL    HW2 5245   1.567   3.972   5.781
 1080SOL     OW 5246   1.526   3.836   0.203
 1080SOL    HW1 5247   1.453   3.842   0.264
 1080SOL    HW2 5248   1.505   3.760   0.148
 1081SOL     OW 5249   9.753   0.784   1.900
 1081SOL    HW1 5250   9.766   0.752   1.810
 1081SOL    HW2 5251   9.840   0.812   1.927
 1082SOL     OW 5252   8.856   3.722   8.822
 1082SOL    HW1 5253   8.828   3.691   8.908
 1082SOL    HW2 5254   8.784   3.776   8.791
 1083SOL     OW 5255   3.567   8.411  10.054
 1083SOL    HW1 5256   3.574   8.479   9.987
 1083SOL    HW2 5257   3.476   8.414  10.083
 1084SOL     OW 5258   6.131   9.974  10.786
 1084SOL    HW1 5259   6.156   9.952  10.696
 1084SOL    HW2 5260   6.134   9.890  10.833
 1085SOL     OW 5261   4.675   7.349   8.756
 1085SOL    HW1 5262   4.583   7.356   8.732
 1085SOL    HW2 5263   4.695   7.256   8.747
 1086SOL     OW 5264   6.763   5.237   0.984
 1086SOL    HW1 5265   6.812   5.209   1.061
 1086SOL    HW2 5266   6.682   5.274   1.018
 1087SOL     OW 5267   2.436   0.221   0.451
 1087SOL    HW1 5268   2.499   0.292   0.444
 1087SOL    HW2 5269   2.385   0.241   0.529
 1088SOL     OW 5270   6.692   0.140   0.504
 1088SOL    HW1 5271   6.716   0.062   0.554
 1088SOL    HW2 5272   6.769   0.158   0.450
 1089SOL     OW 5273   8.961   0.451   0.749
 1089SOL    HW1 5274   8.908   0.435   0.671
 1089SOL    HW2 5275   9.001   0.366   0.768
 1090SOL     OW 5276   1.415   9.026   8.666
 1090SOL    HW1 5277   1.360   9.019   8.588
 1090SOL    HW2 5278   1.353   9.027   8.739
 1091SOL     OW 5279   1.704   6.806   6.191
 1091SOL    HW1 5280   1.623   6.835   6.149
 1091SOL    HW2 5281   1.697   6.710   6.193
 1092SOL     OW 5282   8.185   4.349   9.722
 1092SOL    HW1 5283   8.279   4.364   9.715
 1092SOL    HW2 5284   8.163   4.373   9.812
 1093SOL     OW 5285   7.996   1.869   4.167
 1093SOL    HW1 5286   7.925   1.872   4.231
 1093SOL    HW2 5287   8.073   1.840   4.217
 1094SOL     OW 5288   0.510   0.574   5.308
 1094SOL    HW1 5289   0.594   0.532   5.288
 1094SOL    HW2 5290   0.462   0.570   5.225
 1095SOL     OW 5291  10.058   8.661   7.815
 1095SOL    HW1 5292  10.073   8.733   7.875
 1095SOL    HW2 5293  10.068   8.582   7.869
 1096SOL     OW 5294   0.135   6.186   8.442
 1096SOL    HW1 5295   0.191   6.216   8.370
 1096SOL    HW2 5296   0.101   6.101   8.412
 1097SOL     OW 5297   9.041   7.093   6.471
 1097SOL    HW1 5298   9.005   7.080   6.383
 1097SOL    HW2 5299   9.093   7.173   6.464
 1098SOL     OW 5300   5.428   0.144   9.067
 1098SOL    HW1 5301   5.395   0.095   9.142
 1098SOL    HW2 5302   5.355   0.145   9.005
 1099SOL     OW 5303   1.210   3.927   6.404
 1099SOL    HW1 5304   1.214   3.854   6.341
 1099SOL    HW2 5305   1.197   4.005   6.350
 1100SOL     OW 5306  10.199   2.725   6.170
 1100SOL    HW1 5307  10.193   2.629   6.168
 1100SOL    HW2 5308  10.143   2.751   6.242
 1101SOL     OW 5309   6.758   2.425   9.183
 1101SOL    HW1 5310   6.808   2.477   9.246
 1101SOL    HW2 5311   6.803   2.439   9.099
 1102SOL     OW 5312   2.640   1.894  10.464
 1102SOL    HW1 5313   2.545   1.887  10.466
 1102SOL    HW2 5314   2.670   1.805  10.445
 1103SOL     OW 5315   0.133   2.703   0.138
 1103SOL    HW1 5316   0.046   2.743   0.137
 1103SOL    HW2 5317   0.125   2.631   0.201
 1104SOL     OW 5318   3.809   2.554  10.786
 1104SOL    HW1 5319   3.810   2.494  10.860
 1104SOL    HW2 5320   3.718   2.555  10.757
 1105SOL     OW 5321   2.125   3.172   0.536
 1105SOL    HW1 5322   2.161   3.173   0.447
 1105SOL    HW2 5323   2.197   3.142   0.591
 1106SOL     OW 5324   4.655   9.419   6.569
 1106SOL    HW1 5325   4.736   9.400   6.522
 1106SOL    HW2 5326   4.626   9.503   6.534
 1107SOL     OW 5327   0.890   4.638   5.970
 1107SOL    HW1 5328   0.835   4.573   5.926
 1107SOL    HW2 5329   0.833   4.677   6.036
 1108SOL     OW 5330   0.879   0.963   4.677
 1108SOL    HW1 5331   0.968   0.944   4.708
 1108SOL    HW2 5332   0.822   0.935   4.748
 1109SOL     OW 5333  10.286   2.252   7.177
 1109SOL    HW1 5334  10.275   2.244   7.271
 1109SOL    HW2 5335  10.369   2.298   7.166
 1110SOL     OW 5336   2.329   4.537   9.349
 1110SOL    HW1 5337   2.297   4.624   9.373
 1110SOL    HW2 5338   2.345   4.493   9.432
 1111SOL     OW 5339   1.096   8.332   5.700
 1111SOL    HW1 5340   1.161   8.391   5.738
 1111SOL    HW2 5341   1.026   8.389   5.670
 1112SOL     OW 5342   2.316   9.567   9.772
 1112SOL    HW1 5343   2.297   9.585   9.864
 1112SOL    HW2 5344   2.329   9.653   9.733
 1113SOL     OW 5345   7.611   6.339   4.883
 1113SOL    HW1 5346   7.537   6.383   4.841
 1113SOL    HW2 5347   7.679   6.337   4.815
 1114SOL     OW 5348  10.916   8.132  10.204
 1114SOL    HW1 5349  10.940   8.039  10.206
 1114SOL    HW2 5350  10.820   8.132  10.201
 1115SOL     OW 5351   0.984   5.636   8.953
 1115SOL    HW1 5352   0.980   5.543   8.976
 1115SOL    HW2 5353   1.009   5.680   9.034
 1116SOL     OW 5354   4.312   3.266   1.731
 1116SOL    HW1 5355   4.366   3.315   1.793
 1116SOL    HW2 5356   4.299   3.181   1.773
 1117SOL     OW 5357   3.588   5.745   7.419
 1117SOL    HW1 5358   3.540   5.662   7.425
 1117SOL    HW2 5359   3.655   5.729   7.352
 1118SOL     OW 5360   7.394   9.400   4.740
 1118SOL    HW1 5361   7.337   9.476   4.745
 1118SOL    HW2 5362   7.338   9.329   4.709
 1119SOL     OW 5363   6.725   0.931   6.184
 1119SOL    HW1 5364   6.810   0.912   6.145
 1119SOL    HW2 5365   6.711   1.024   6.167
 1120SOL     OW 5366   6.393   9.993   1.038
 1120SOL    HW1 5367   6.339  10.024   0.965
 1120SOL    HW2 5368   6.333   9.943   1.093
 1121SOL     OW 5369  10.048   1.023   1.251
 1121SOL    HW1 5370   9.995   0.949   1.221
 1121SOL    HW2 5371  10.045   1.085   1.178
 1122SOL     OW 5372   0.318  10.942   3.000
 1122SOL    HW1 5373   0.302  10.980   2.913
 1122SOL    HW2 5374   0.233  10.907   3.026
 1123SOL     OW 5375   3.867   0.099   9.813
 1123SOL    HW1 5376   3.786   0.060   9.779
 1123SOL    HW2 5377   3.842   0.142   9.894
 1124SOL     OW 5378   1.647   3.693   0.508
 1124SOL    HW1 5379   1.617   3.700   0.417
 1124SOL    HW2 5380   1.654   3.783   0.538
 1125SOL     OW 5381  10.114   9.476   0.301
 1125SOL    HW1 5382  10.205   9.503   0.314
 1125SOL    HW2 5383  10.117   9.380   0.303
 1126SOL     OW 5384   9.139   3.900   8.407
 1126SOL    HW1 5385   9.200   3.938   8.344
 1126SOL    HW2 5386   9.059   3.952   8.398
 1127SOL     OW 5387   2.491   9.828  10.312
 1127SOL    HW1 5388   2.519   9.817  10.403
 1127SOL    HW2 5389   2.533   9.909  10.284
 1128SOL     OW 5390   2.509   3.440   9.579
 1128SOL    HW1 5391   2.569   3.430   9.653
 1128SOL    HW2 5392   2.466   3.524   9.594
 1129SOL     OW 5393   2.127   7.480   3.199
 1129SOL    HW1 5394   2.039   7.450   3.177
 1129SOL    HW2 5395   2.160   7.519   3.118
 1130SOL     OW 5396   9.980   9.802   8.270
 1130SOL    HW1 5397   9.982   9.783   8.176
 1130SOL    HW2 5398   9.938   9.888   8.276
 1131SOL     OW 5399   5.146   1.864   5.850
 1131SOL    HW1 5400   5.152   1.768   5.849
 1131SOL    HW2 5401   5.106   1.886   5.765
 1132SOL     OW 5402   9.928   1.812  10.178
 1132SOL    HW1 5403   9.837   1.824  10.205
 1132SOL    HW2 5404   9.940   1.717  10.178
 1133SOL     OW 5405   8.168   7.409   5.274
 1133SOL    HW1 5406   8.253   7.366   5.260
 1133SOL    HW2 5407   8.191   7.499   5.297
 1134SOL     OW 5408   4.590   5.887   0.349
 1134SOL    HW1 5409   4.496   5.874   0.360
 1134SOL    HW2 5410   4.623   5.903   0.437
 1135SOL     OW 5411   8.690   4.181   6.292
 1135SOL    HW1 5412   8.667   4.254   6.349
 1135SOL    HW2 5413   8.618   4.176   6.229
 1136SOL     OW 5414  10.463   8.942   9.878
 1136SOL    HW1 5415  10.476   8.881   9.950
 1136SOL    HW2 5416  10.387   8.994   9.903
 1137SOL     OW 5417  10.266   9.329   6.051
 1137SOL    HW1 5418  10.239   9.250   6.003
 1137SOL    HW2 5419  10.253   9.400   5.989
 1138SOL     OW 5420   6.599   1.491   0.480
 1138SOL    HW1 5421   6.656   1.562   0.508
 1138SOL    HW2 5422   6.582   1.440   0.559
 1139SOL     OW 5423  10.905   8.686   7.779
 1139SOL    HW1 5424  10.962   8.643   7.843
 1139SOL    HW2 5425  10.953   8.765   7.754
 1140SOL     OW 5426   2.860   3.011   3.823
 1140SOL    HW1 5427   2.872   3.069   3.898
 1140SOL    HW2 5428   2.938   3.025   3.769
 1141SOL     OW 5429   1.373   0.859   5.296
 1141SOL    HW1 5430   1.341   0.793   5.234
 1141SOL    HW2 5431   1.313   0.933   5.285
 1142SOL     OW 5432   7.074   6.870   1.490
 1142SOL    HW1 5433   7.007   6.802   1.498
 1142SOL    HW2 5434   7.136   6.834   1.426
 1143SOL     OW 5435   8.683   2.984   3.576
 1143SOL    HW1 5436   8.628   3.062   3.572
 1143SOL    HW2 5437   8.748   3.004   3.643
 1144SOL     OW 5438   8.216   3.932   7.878
 1144SOL    HW1 5439   8.171   3.948   7.961
 1144SOL    HW2 5440   8.297   3.888   7.902
 1145SOL     OW 5441   2.031   3.975   2.390
 1145SOL    HW1 5442   2.066   3.887   2.403
 1145SOL    HW2 5443   2.069   4.027   2.461
 1146SOL     OW 5444   9.166   8.687   5.873
 1146SOL    HW1 5445   9.073   8.696   5.891
 1146SOL    HW2 5446   9.191   8.769   5.831
 1147SOL     OW 5447   7.723  11.037   0.920
 1147SOL    HW1 5448   7.689  10.982   0.849
 1147SOL    HW2 5449   7.808  10.998   0.942
 1148SOL     OW 5450   9.899   8.748   6.225
 1148SOL    HW1 5451   9.923   8.839   6.208
 1148SOL    HW2 5452   9.806   8.750   6.245
 1149SOL     OW 5453   8.319   5.071   0.352
 1149SOL    HW1 5454   8.323   5.151   0.300
 1149SOL    HW2 5455   8.320   5.101   0.443
 1150SOL     OW 5456   6.899   9.668  10.408
 1150SOL    HW1 5457   6.951   9.730  10.459
 1150SOL    HW2 5458   6.873   9.601  10.471
 1151SOL     OW 5459  10.721   0.690   8.450
 1151SOL    HW1 5460  10.739   0.596   8.458
 1151SOL    HW2 5461  10.716   0.721   8.540
 1152SOL     OW 5462  10.278   9.876   0.899
 1152SOL    HW1 5463  10.347   9.942   0.898
 1152SOL    HW2 5464  10.240   9.880   0.811
 1153SOL     OW 5465   0.520   8.299   5.527
 1153SOL    HW1 5466   0.502   8.218   5.576
 1153SOL    HW2 5467   0.436   8.344   5.523
 1154SOL     OW 5468  10.201   8.654   0.143
 1154SOL    HW1 5469  10.289   8.641   0.179
 1154SOL    HW2 5470  10.162   8.566   0.143
 1155SOL     OW 5471   9.502   8.722   6.122
 1155SOL    HW1 5472   9.578   8.675   6.086
 1155SOL    HW2 5473   9.520   8.814   6.103
 1156SOL     OW 5474   5.356   6.234   4.035
 1156SOL    HW1 5475   5.325   6.304   4.091
 1156SOL    HW2 5476   5.362   6.158   4.093
 1157SOL     OW 5477   7.140  10.180   3.106
 1157SOL    HW1 5478   7.092  10.220   3.033
 1157SOL    HW2 5479   7.186  10.106   3.066
 1158SOL     OW 5480   3.839   2.882   0.535
 1158SOL    HW1 5481   3.799   2.968   0.522
 1158SOL    HW2 5482   3.813   2.831   0.458
 1159SOL     OW 5483   0.010   9.092   0.480
 1159SOL    HW1 5484  -0.055   9.071   0.413
 1159SOL    HW2 5485   0.043   9.178   0.455
 1160SOL     OW 5486   0.798   0.994   8.449
 1160SOL    HW1 5487   0.733   1.015   8.516
 1160SOL    HW2 5488   0.748   0.988   8.368
 1161SOL     OW 5489  10.790   1.212  10.562
 1161SOL    HW1 5490  10.818   1.203  10.471
 1161SOL    HW2 5491  10.783   1.306  10.576
 1162SOL     OW 5492   6.364  11.073   2.236
 1162SOL    HW1 5493   6.316  11.019   2.299
 1162SOL    HW2 5494   6.366  11.160   2.276
 1163SOL     OW 5495   3.777   6.288   9.344
 1163SOL    HW1 5496   3.726   6.296   9.424
 1163SOL    HW2 5497   3.862   6.326   9.365
 1164SOL     OW 5498   7.648   1.775   0.136
 1164SOL    HW1 5499   7.643   1.692   0.185
 1164SOL    HW2 5500   7.719   1.823   0.178
 1165SOL     OW 5501  10.195   8.565  10.040
 1165SOL    HW1 5502  10.100   8.572  10.048
 1165SOL    HW2 5503  10.209   8.484   9.990
 1166SOL     OW 5504   5.697   1.362   1.701
 1166SOL    HW1 5505   5.731   1.284   1.746
 1166SOL    HW2 5506   5.688   1.334   1.609
 1167SOL     OW 5507   8.704   7.916   7.407
 1167SOL    HW1 5508   8.759   7.862   7.350
 1167SOL    HW2 5509   8.615   7.901   7.376
 1168SOL     OW 5510   0.351   9.832   2.122
 1168SOL    HW1 5511   0.318   9.893   2.056
 1168SOL    HW2 5512   0.372   9.753   2.072
 1169SOL     OW 5513   3.944   9.140   9.435
 1169SOL    HW1 5514   3.919   9.096   9.516
 1169SOL    HW2 5515   3.863   9.177   9.402
 1170SOL     OW 5516   3.639   1.979   8.440
 1170SOL    HW1 5517   3.710   2.042   8.451
 1170SOL    HW2 5518   3.609   1.992   8.350
 1171SOL     OW 5519   6.053   7.396   0.868
 1171SOL    HW1 5520   6.051   7.380   0.962
 1171SOL    HW2 5521   5.964   7.379   0.838
 1172SOL     OW 5522   4.433   9.475   9.726
 1172SOL    HW1 5523   4.404   9.430   9.646
 1172SOL    HW2 5524   4.405   9.566   9.714
 1173SOL     OW 5525   3.563   3.412   3.142
 1173SOL    HW1 5526   3.523   3.335   3.182
 1173SOL    HW2 5527   3.562   3.478   3.211
 1174SOL     OW 5528   5.473   3.825   6.442
 1174SOL    HW1 5529   5.409   3.754   6.444
 1174SOL    HW2 5530   5.533   3.801   6.371
 1175SOL     OW 5531   9.350   3.825   0.930
 1175SOL    HW1 5532   9.342   3.827   1.025
 1175SOL    HW2 5533   9.379   3.913   0.906
 1176SOL     OW 5534   2.466   8.561   0.608
 1176SOL    HW1 5535   2.434   8.488   0.661
 1176SOL    HW2 5536   2.484   8.521   0.522
 1177SOL     OW 5537   0.972   8.014   1.705
 1177SOL    HW1 5538   0.907   7.943   1.702
 1177SOL    HW2 5539   0.923   8.093   1.682
 1178SOL     OW 5540   1.957   0.005   4.361
 1178SOL    HW1 5541   1.902   0.015   4.438
 1178SOL    HW2 5542   1.943   0.085   4.311
 1179SOL     OW 5543   5.699   2.425  10.452
 1179SOL    HW1 5544   5.751   2.394  10.378
 1179SOL    HW2 5545   5.728   2.515  10.465
 1180SOL     OW 5546   9.753  10.069   1.497
 1180SOL    HW1 5547   9.662  10.043   1.486
 1180SOL    HW2 5548   9.786  10.011   1.566
 1181SOL     OW 5549   8.333   5.008   9.941
 1181SOL    HW1 5550   8.393   5.033  10.011
 1181SOL    HW2 5551   8.313   4.916   9.958
 1182SOL     OW 5552   8.839   0.742   3.049
 1182SOL    HW1 5553   8.831   0.654   3.011
 1182SOL    HW2 5554   8.904   0.732   3.118
 1183SOL     OW 5555  10.336   9.619   5.300
 1183SOL    HW1 5556  10.326   9.712   5.283
 1183SOL    HW2 5557  10.350   9.581   5.213
 1184SOL     OW 5558   3.362   9.099   3.471
 1184SOL    HW1 5559   3.436   9.038   3.482
 1184SOL    HW2 5560   3.386   9.152   3.395
 1185SOL     OW 5561   7.259  10.835   0.511
 1185SOL    HW1 5562   7.279  10.761   0.568
 1185SOL    HW2 5563   7.328  10.899   0.529
 1186SOL     OW 5564   4.698   2.251   3.865
 1186SOL    HW1 5565   4.654   2.328   3.830
 1186SOL    HW2 5566   4.627   2.196   3.899
 1187SOL     OW 5567   0.851   4.098   7.835
 1187SOL    HW1 5568   0.945   4.101   7.815
 1187SOL    HW2 5569   0.810   4.073   7.752
 1188SOL     OW 5570  10.605   1.375   3.618
 1188SOL    HW1 5571  10.594   1.335   3.531
 1188SOL    HW2 5572  10.562   1.460   3.610
 1189SOL     OW 5573   2.102   5.679   9.170
 1189SOL    HW1 5574   2.170   5.655   9.233
 1189SOL    HW2 5575   2.069   5.595   9.138
 1190SOL     OW 5576   3.448   6.827   9.148
 1190SOL    HW1 5577   3.509   6.772   9.197
 1190SOL    HW2 5578   3.365   6.818   9.194
 1191SOL     OW 5579   0.274   7.909   4.432
 1191SOL    HW1 5580   0.248   7.984   4.378
 1191SOL    HW2 5581   0.317   7.849   4.370
 1192SOL     OW 5582   1.968   0.377   7.611
 1192SOL    HW1 5583   1.956   0.393   7.517
 1192SOL    HW2 5584   2.033   0.441   7.638
 1193SOL     OW 5585   9.052   1.004   7.718
 1193SOL    HW1 5586   9.062   0.933   7.654
 1193SOL    HW2 5587   8.958   1.007   7.736
 1194SOL     OW 5588   1.534   0.834   4.946
 1194SOL    HW1 5589   1.445   0.798   4.941
 1194SOL    HW2 5590   1.535   0.886   5.026
 1195SOL     OW 5591   8.714   7.940   1.373
 1195SOL    HW1 5592   8.709   7.845   1.362
 1195SOL    HW2 5593   8.624   7.970   1.361
 1196SOL     OW 5594   8.208   1.381   7.334
 1196SOL    HW1 5595   8.126   1.398   7.381
 1196SOL    HW2 5596   8.204   1.288   7.312
 1197SOL     OW 5597   9.575   8.869   0.333
 1197SOL    HW1 5598   9.611   8.904   0.251
 1197SOL    HW2 5599   9.609   8.927   0.401
 1198SOL     OW 5600   2.135   1.509  11.056
 1198SOL    HW1 5601   2.106   1.434  11.003
 1198SOL    HW2 5602   2.078   1.581  11.029
 1199SOL     OW 5603   0.331  10.580   1.392
 1199SOL    HW1 5604   0.268  10.640   1.351
 1199SOL    HW2 5605   0.283  10.498   1.400
 1200SOL     OW 5606   3.873   7.691   3.752
 1200SOL    HW1 5607   3.964   7.686   3.724
 1200SOL    HW2 5608   3.841   7.601   3.745
 1201SOL     OW 5609   1.898   6.384   5.463
 1201SOL    HW1 5610   1.811   6.380   5.423
 1201SOL    HW2 5611   1.938   6.300   5.441
 1202SOL     OW 5612   1.100   3.165   9.082
 1202SOL    HW1 5613   1.036   3.169   9.153
 1202SOL    HW2 5614   1.183   3.191   9.122
 1203SOL     OW 5615   5.744   6.910   1.467
 1203SOL    HW1 5616   5.731   6.870   1.553
 1203SOL    HW2 5617   5.750   7.004   1.485
 1204SOL     OW 5618   9.144  10.428   7.704
 1204SOL    HW1 5619   9.190  10.447   7.785
 1204SOL    HW2 5620   9.052  10.443   7.724
 1205SOL     OW 5621   8.800  10.550   4.657
 1205SOL    HW1 5622   8.757  10.467   4.637
 1205SOL    HW2 5623   8.877  10.552   4.599
 1206SOL     OW 5624   4.036   4.950  10.578
 1206SOL    HW1 5625   4.014   5.033  10.537
 1206SOL    HW2 5626   3.953   4.917  10.612
 1207SOL     OW 5627   0.882   8.430   7.042
 1207SOL    HW1 5628   0.795   8.397   7.062
 1207SOL    HW2 5629   0.878   8.452   6.949
 1208SOL     OW 5630   8.231   9.617   3.730
 1208SOL    HW1 5631   8.242   9.681   3.799
 1208SOL    HW2 5632   8.320   9.585   3.712
 1209SOL     OW 5633   1.179   9.539   2.884
 1209SOL    HW1 5634   1.201   9.515   2.794
 1209SOL    HW2 5635   1.162   9.455   2.927
 1210SOL     OW 5636   6.445   4.499   9.156
 1210SOL    HW1 5637   6.445   4.404   9.144
 1210SOL    HW2 5638   6.354   4.525   9.141
 1211SOL     OW 5639   7.643   8.696   8.764
 1211SOL    HW1 5640   7.714   8.753   8.734
 1211SOL    HW2 5641   7.625   8.639   8.689
 1212SOL     OW 5642   6.793   4.532   1.250
 1212SOL    HW1 5643   6.870   4.498   1.296
 1212SOL    HW2 5644   6.741   4.575   1.317
 1213SOL     OW 5645   1.367   0.995   2.580
 1213SOL    HW1 5646   1.397   0.920   2.527
 1213SOL    HW2 5647   1.280   0.969   2.611
 1214SOL     OW 5648   9.107   8.538   5.558
 1214SOL    HW1 5649   9.127   8.458   5.508
 1214SOL    HW2 5650   9.153   8.526   5.641
 1215SOL     OW 5651   5.378   3.807   0.919
 1215SOL    HW1 5652   5.426   3.882   0.953
 1215SOL    HW2 5653   5.325   3.777   0.993
 1216SOL     OW 5654   3.420   8.628   4.139
 1216SOL    HW1 5655   3.509   8.652   4.114
 1216SOL    HW2 5656   3.379   8.710   4.165
 1217SOL     OW 5657  10.628  10.043   9.221
 1217SOL    HW1 5658  10.668  10.126   9.246
 1217SOL    HW2 5659  10.662  10.026   9.133
 1218SOL     OW 5660   9.548   2.138  10.973
 1218SOL    HW1 5661   9.634   2.120  11.012
 1218SOL    HW2 5662   9.508   2.203  11.031
 1219SOL     OW 5663   0.048   6.533  10.436
 1219SOL    HW1 5664  -0.035   6.500  10.471
 1219SOL    HW2 5665   0.111   6.464  10.457
 1220SOL     OW 5666   1.565  10.482   9.060
 1220SOL    HW1 5667   1.626  10.553   9.039
 1220SOL    HW2 5668   1.586  10.413   8.996
 1221SOL     OW 5669  10.971   1.899   2.493
 1221SOL    HW1 5670  11.058   1.859   2.486
 1221SOL    HW2 5671  10.976   1.976   2.436
 1222SOL     OW 5672   9.974   2.343   9.841
 1222SOL    HW1 5673   9.882   2.323   9.824
 1222SOL    HW2 5674  10.010   2.262   9.878
 1223SOL     OW 5675   7.869   4.795   0.524
 1223SOL    HW1 5676   7.827   4.709   0.514
 1223SOL    HW2 5677   7.826   4.835   0.599
 1224SOL     OW 5678   6.795   9.670  10.868
 1224SOL    HW1 5679   6.792   9.692  10.961
 1224SOL    HW2 5680   6.772   9.577  10.864
 1225SOL     OW 5681   1.291   0.736   0.293
 1225SOL    HW1 5682   1.332   0.748   0.378
 1225SOL    HW2 5683   1.262   0.645   0.293
 1226SOL     OW 5684   2.674   4.131   1.933
 1226SOL    HW1 5685   2.684   4.219   1.967
 1226SOL    HW2 5686   2.725   4.076   1.992
 1227SOL     OW 5687   5.631   1.093   8.681
 1227SOL    HW1 5688   5.687   1.070   8.606
 1227SOL    HW2 5689   5.545   1.058   8.657
 1228SOL     OW 5690   4.192   7.564   1.466
 1228SOL    HW1 5691   4.161   7.573   1.556
 1228SOL    HW2 5692   4.150   7.484   1.434
 1229SOL     OW 5693   8.851   7.575   9.715
 1229SOL    HW1 5694   8.904   7.631   9.659
 1229SOL    HW2 5695   8.805   7.517   9.654
 1230SOL     OW 5696   7.471   1.538   7.645
 1230SOL    HW1 5697   7.430   1.600   7.704
 1230SOL    HW2 5698   7.565   1.545   7.663
 1231SOL     OW 5699   2.237   5.305   0.633
 1231SOL    HW1 5700   2.235   5.291   0.727
 1231SOL    HW2 5701   2.162   5.255   0.600
 1232SOL     OW 5702  10.768   2.408   5.525
 1232SOL    HW1 5703  10.804   2.320   5.513
 1232SOL    HW2 5704  10.674   2.394   5.538
 1233SOL     OW 5705   8.768   8.827   7.776
 1233SOL    HW1 5706   8.782   8.858   7.686
 1233SOL    HW2 5707   8.735   8.903   7.823
 1234SOL     OW 5708  10.756   1.749   2.542
 1234SOL    HW1 5709  10.834   1.802   2.524
 1234SOL    HW2 5710  10.683   1.805   2.518
 1235SOL     OW 5711   5.505  10.668   0.064
 1235SOL    HW1 5712   5.414  10.646   0.046
 1235SOL    HW2 5713   5.534  10.718  -0.012
 1236SOL     OW 5714   8.012   0.703   9.283
 1236SOL    HW1 5715   7.928   0.685   9.324
 1236SOL    HW2 5716   7.990   0.741   9.198
 1237SOL     OW 5717   1.654   0.158   0.412
 1237SOL    HW1 5718   1.586   0.224   0.408
 1237SOL    HW2 5719   1.705   0.180   0.490
 1238SOL     OW 5720  10.063   1.663   9.312
 1238SOL    HW1 5721  10.024   1.581   9.281
 1238SOL    HW2 5722   9.988   1.717   9.336
 1239SOL     OW 5723   0.512   1.791   6.086
 1239SOL    HW1 5724   0.515   1.755   5.997
 1239SOL    HW2 5725   0.422   1.776   6.115
 1240SOL     OW 5726   7.922   2.456   0.503
 1240SOL    HW1 5727   7.878   2.460   0.587
 1240SOL    HW2 5728   8.009   2.493   0.519
 1241SOL     OW 5729   6.458   0.797   9.201
 1241SOL    HW1 5730   6.496   0.723   9.152
 1241SOL    HW2 5731   6.379   0.761   9.241
 1242SOL     OW 5732   5.432   1.160   3.843
 1242SOL    HW1 5733   5.445   1.102   3.767
 1242SOL    HW2 5734   5.514   1.153   3.892
 1243SOL     OW 5735   9.325   1.239   7.941
 1243SOL    HW1 5736   9.335   1.186   7.861
 1243SOL    HW2 5737   9.230   1.242   7.955
 1244SOL     OW 5738   1.353  10.155   8.505
 1244SOL    HW1 5739   1.395  10.184   8.424
 1244SOL    HW2 5740   1.391  10.068   8.522
 1245SOL     OW 5741   1.474   5.887  10.470
 1245SOL    HW1 5742   1.405   5.907  10.407
 1245SOL    HW2 5743   1.468   5.956  10.535
 1246SOL     OW 5744   4.201   6.256  10.980
 1246SOL    HW1 5745   4.107   6.260  10.961
 1246SOL    HW2 5746   4.207   6.220  11.068
 1247SOL     OW 5747  10.005   0.040   8.797
 1247SOL    HW1 5748  10.071  -0.023   8.766
 1247SOL    HW2 5749  10.035   0.124   8.762
 1248SOL     OW 5750   8.495   1.140  11.070
 1248SOL    HW1 5751   8.498   1.104  10.981
 1248SOL    HW2 5752   8.496   1.235  11.057
 1249SOL     OW 5753  10.867   0.808   7.231
 1249SOL    HW1 5754  10.916   0.861   7.293
 1249SOL    HW2 5755  10.931   0.785   7.164
 1250SOL     OW 5756   5.862   6.547   9.557
 1250SOL    HW1 5757   5.877   6.461   9.596
 1250SOL    HW2 5758   5.772   6.544   9.526
 1251SOL     OW 5759   0.228   4.968   2.322
 1251SOL    HW1 5760   0.285   4.989   2.248
 1251SOL    HW2 5761   0.169   5.043   2.329
 1252SOL     OW 5762   5.044   5.380   0.174
 1252SOL    HW1 5763   5.069   5.463   0.135
 1252SOL    HW2 5764   4.958   5.361   0.138
 1253SOL     OW 5765  10.264   2.490   1.841
 1253SOL    HW1 5766  10.346   2.535   1.858
 1253SOL    HW2 5767  10.275   2.404   1.883
 1254SOL     OW 5768   7.460   8.687   4.101
 1254SOL    HW1 5769   7.493   8.732   4.023
 1254SOL    HW2 5770   7.470   8.594   4.080
 1255SOL     OW 5771   2.579   8.975  10.958
 1255SOL    HW1 5772   2.592   8.881  10.972
 1255SOL    HW2 5773   2.612   9.016  11.037
 1256SOL     OW 5774  10.140   3.285   1.513
 1256SOL    HW1 5775  10.090   3.358   1.547
 1256SOL    HW2 5776  10.086   3.249   1.443
 1257SOL     OW 5777   1.284   7.520   4.806
 1257SOL    HW1 5778   1.204   7.468   4.810
 1257SOL    HW2 5779   1.342   7.479   4.870
 1258SOL     OW 5780   7.966   9.893   0.823
 1258SOL    HW1 5781   7.938   9.973   0.778
 1258SOL    HW2 5782   7.892   9.870   0.878
 1259SOL     OW 5783   4.827   9.499   5.865
 1259SOL    HW1 5784   4.744   9.539   5.841
 1259SOL    HW2 5785   4.892   9.567   5.848
 1260SOL     OW 5786   2.628   1.820   1.247
 1260SOL    HW1 5787   2.629   1.724   1.240
 1260SOL    HW2 5788   2.632   1.850   1.156
 1261SOL     OW 5789   8.295   0.719  10.614
 1261SOL    HW1 5790   8.340   0.743  10.533
 1261SOL    HW2 5791   8.222   0.781  10.620
 1262SOL     OW 5792   3.122   9.189   8.732
 1262SOL    HW1 5793   3.176   9.254   8.687
 1262SOL    HW2 5794   3.033   9.221   8.721
 1263SOL     OW 5795   2.232  10.743  10.478
 1263SOL    HW1 5796   2.225  10.803  10.404
 1263SOL    HW2 5797   2.143  10.736  10.511
 1264SOL     OW 5798   7.899   5.586   1.498
 1264SOL    HW1 5799   7.939   5.656   1.550
 1264SOL    HW2 5800   7.808   5.584   1.526
 1265SOL     OW 5801   0.480   9.363   0.317
 1265SOL    HW1 5802   0.440   9.429   0.373
 1265SOL    HW2 5803   0.567   9.398   0.296
 1266SOL     OW 5804   8.142   7.165   0.802
 1266SOL    HW1 5805   8.068   7.201   0.851
 1266SOL    HW2 5806   8.219   7.201   0.845
 1267SOL     OW 5807   1.679  10.407   3.283
 1267SOL    HW1 5808   1.692  10.464   3.207
 1267SOL    HW2 5809   1.618  10.340   3.252
 1268SOL     OW 5810   8.755   7.584   1.050
 1268SOL    HW1 5811   8.688   7.621   1.106
 1268SOL    HW2 5812   8.719   7.591   0.961
 1269SOL     OW 5813   5.245   2.550   1.343
 1269SOL    HW1 5814   5.287   2.595   1.416
 1269SOL    HW2 5815   5.155   2.582   1.343
 1270SOL     OW 5816   0.470   8.675  10.334
 1270SOL    HW1 5817   0.395   8.727  10.362
 1270SOL    HW2 5818   0.432   8.593  10.303
 1271SOL     OW 5819   5.738   6.698   3.188
 1271SOL    HW1 5820   5.725   6.643   3.110
 1271SOL    HW2 5821   5.695   6.649   3.258
 1272SOL     OW 5822   0.200   3.894   2.376
 1272SOL    HW1 5823   0.233   3.954   2.442
 1272SOL    HW2 5824   0.196   3.809   2.420
 1273SOL     OW 5825   5.160   1.095   2.770
 1273SOL    HW1 5826   5.074   1.057   2.753
 1273SOL    HW2 5827   5.143   1.188   2.781
 1274SOL     OW 5828   3.091   5.178   1.284
 1274SOL    HW1 5829   3.069   5.212   1.370
 1274SOL    HW2 5830   3.012   5.132   1.255
 1275SOL     OW 5831   9.923  10.140  10.782
 1275SOL    HW1 5832   9.862  10.081  10.826
 1275SOL    HW2 5833  10.006  10.127  10.828
 1276SOL     OW 5834   9.752   2.468   8.174
 1276SOL    HW1 5835   9.662   2.496   8.190
 1276SOL    HW2 5836   9.761   2.470   8.078
 1277SOL     OW 5837   7.340   3.312   6.884
 1277SOL    HW1 5838   7.364   3.304   6.791
 1277SOL    HW2 5839   7.370   3.399   6.909
 1278SOL     OW 5840  11.023   3.029   3.932
 1278SOL    HW1 5841  10.974   3.105   3.901
 1278SOL    HW2 5842  11.000   3.022   4.024
 1279SOL     OW 5843   7.147   3.961   0.908
 1279SOL    HW1 5844   7.192   3.879   0.931
 1279SOL    HW2 5845   7.144   3.960   0.812
 1280SOL     OW 5846   9.061  10.112   5.882
 1280SOL    HW1 5847   8.977  10.119   5.837
 1280SOL    HW2 5848   9.039  10.094   5.973
 1281SOL     OW 5849   7.448   9.163   2.349
 1281SOL    HW1 5850   7.504   9.233   2.382
 1281SOL    HW2 5851   7.500   9.083   2.361
 1282SOL     OW 5852   6.470   9.989  10.678
 1282SOL    HW1 5853   6.520   9.907  10.671
 1282SOL    HW2 5854   6.463  10.021  10.588
 1283SOL     OW 5855   5.118   6.629   1.847
 1283SOL    HW1 5856   5.162   6.657   1.927
 1283SOL    HW2 5857   5.054   6.564   1.876
 1284SOL     OW 5858   0.244   2.697   6.930
 1284SOL    HW1 5859   0.153   2.667   6.937
 1284SOL    HW2 5860   0.275   2.702   7.020
 1285SOL     OW 5861   9.784   0.702   6.777
 1285SOL    HW1 5862   9.695   0.696   6.810
 1285SOL    HW2 5863   9.839   0.685   6.853
 1286SOL     OW 5864   6.347   1.347   7.872
 1286SOL    HW1 5865   6.309   1.355   7.784
 1286SOL    HW2 5866   6.304   1.415   7.923
 1287SOL     OW 5867   7.427   5.998   2.345
 1287SOL    HW1 5868   7.411   6.019   2.253
 1287SOL    HW2 5869   7.522   5.997   2.352
 1288SOL     OW 5870  10.237   7.882   6.984
 1288SOL    HW1 5871  10.143   7.899   6.974
 1288SOL    HW2 5872  10.275   7.909   6.900
 1289SOL     OW 5873   4.415  10.410   7.069
 1289SOL    HW1 5874   4.499  10.383   7.105
 1289SOL    HW2 5875   4.354  10.401   7.141
 1290SOL     OW 5876   5.761   7.231   3.565
 1290SOL    HW1 5877   5.797   7.142   3.573
 1290SOL    HW2 5878   5.793   7.277   3.642
 1291SOL     OW 5879   4.749  10.020   6.501
 1291SOL    HW1 5880   4.801   9.978   6.570
 1291SOL    HW2 5881   4.723   9.947   6.444
 1292SOL     OW 5882   9.777   3.199   9.481
 1292SOL    HW1 5883   9.704   3.145   9.452
 1292SOL    HW2 5884   9.736   3.278   9.515
 1293SOL     OW 5885   9.766   4.828   4.449
 1293SOL    HW1 5886   9.855   4.812   4.480
 1293SOL    HW2 5887   9.778   4.879   4.369
 1294SOL     OW 5888   2.009   3.376   9.845
 1294SOL    HW1 5889   2.079   3.339   9.791
 1294SOL    HW2 5890   1.929   3.355   9.797
 1295SOL     OW 5891   0.733   3.698   7.685
 1295SOL    HW1 5892   0.791   3.715   7.759
 1295SOL    HW2 5893   0.646   3.688   7.724
 1296SOL     OW 5894  10.908   1.815  10.791
 1296SOL    HW1 5895  10.848   1.750  10.828
 1296SOL    HW2 5896  10.859   1.897  10.792
 1297SOL     OW 5897   2.189   9.584   8.410
 1297SOL    HW1 5898   2.243   9.520   8.457
 1297SOL    HW2 5899   2.246   9.617   8.340
 1298SOL     OW 5900   1.802   6.784   6.910
 1298SOL    HW1 5901   1.876   6.829   6.950
 1298SOL    HW2 5902   1.797   6.821   6.821
 1299SOL     OW 5903   1.874   2.503   6.567
 1299SOL    HW1 5904   1.870   2.508   6.662
 1299SOL    HW2 5905   1.909   2.588   6.540
 1300SOL     OW 5906   3.428   9.846   9.976
 1300SOL    HW1 5907   3.471   9.851   9.890
 1300SOL    HW2 5908   3.489   9.796  10.030
 1301SOL     OW 5909  10.894   9.981   7.648
 1301SOL    HW1 5910  10.967  10.015   7.699
 1301SOL    HW2 5911  10.904  10.021   7.561
 1302SOL     OW 5912   0.714   8.502   0.249
 1302SOL    HW1 5913   0.689   8.536   0.163
 1302SOL    HW2 5914   0.648   8.537   0.308
 1303SOL     OW 5915   1.293   8.451  10.805
 1303SOL    HW1 5916   1.309   8.368  10.851
 1303SOL    HW2 5917   1.380   8.485  10.786
 1304SOL     OW 5918   2.268   1.570   9.204
 1304SOL    HW1 5919   2.340   1.550   9.264
 1304SOL    HW2 5920   2.189   1.562   9.257
 1305SOL     OW 5921   4.906   8.462  10.804
 1305SOL    HW1 5922   4.998   8.470  10.828
 1305SOL    HW2 5923   4.879   8.379  10.844
 1306SOL     OW 5924   9.780   8.279   6.690
 1306SOL    HW1 5925   9.848   8.221   6.654
 1306SOL    HW2 5926   9.780   8.261   6.784
 1307SOL     OW 5927   1.944  10.057   2.602
 1307SOL    HW1 5928   1.899  10.050   2.686
 1307SOL    HW2 5929   1.931  10.148   2.575
 1308SOL     OW 5930   9.584   5.427   4.442
 1308SOL    HW1 5931   9.569   5.361   4.510
 1308SOL    HW2 5932   9.513   5.413   4.379
 1309SOL     OW 5933   8.896   9.631   0.899
 1309SOL    HW1 5934   8.857   9.626   0.812
 1309SOL    HW2 5935   8.990   9.641   0.882
 1310SOL     OW 5936   1.275   9.951  11.061
 1310SOL    HW1 5937   1.252   9.875  11.115
 1310SOL    HW2 5938   1.368   9.966  11.079
 1311SOL     OW 5939   4.947   0.814   5.154
 1311SOL    HW1 5940   4.985   0.816   5.066
 1311SOL    HW2 5941   4.890   0.891   5.157
 1312SOL     OW 5942   4.164  10.616  10.202
 1312SOL    HW1 5943   4.196  10.630  10.112
 1312SOL    HW2 5944   4.098  10.547  10.194
 1313SOL     OW 5945   2.039   4.757   9.178
 1313SOL    HW1 5946   2.052   4.702   9.255
 1313SOL    HW2 5947   1.949   4.740   9.152
 1314SOL     OW 5948   1.264   0.989   9.158
 1314SOL    HW1 5949   1.198   0.920   9.167
 1314SOL    HW2 5950   1.306   0.994   9.244
 1315SOL     OW 5951   7.400   3.086   0.855
 1315SOL    HW1 5952   7.309   3.109   0.836
 1315SOL    HW2 5953   7.401   2.990   0.855
 1316SOL     OW 5954   8.249   3.936   0.434
 1316SOL    HW1 5955   8.305   3.870   0.476
 1316SOL    HW2 5956   8.301   4.016   0.435
 1317SOL     OW 5957   9.632   1.475   8.959
 1317SOL    HW1 5958   9.609   1.486   8.866
 1317SOL    HW2 5959   9.550   1.448   9.001
 1318SOL     OW 5960   2.434  10.914   1.497
 1318SOL    HW1 5961   2.343  10.943   1.503
 1318SOL    HW2 5962   2.434  10.827   1.537
 1319SOL     OW 5963  10.020   5.165  10.709
 1319SOL    HW1 5964  10.088   5.222  10.672
 1319SOL    HW2 5965   9.949   5.224  10.734
 1320SOL     OW 5966   1.892   9.019   4.690
 1320SOL    HW1 5967   1.859   8.990   4.604
 1320SOL    HW2 5968   1.957   8.953   4.714
 1321SOL     OW 5969   9.173   7.995   1.681
 1321SOL    HW1 5970   9.162   7.902   1.704
 1321SOL    HW2 5971   9.204   8.036   1.761
 1322SOL     OW 5972   2.798   1.672   0.513
 1322SOL    HW1 5973   2.865   1.623   0.561
 1322SOL    HW2 5974   2.727   1.608   0.499
 1323SOL     OW 5975   2.031   9.107   9.691
 1323SOL    HW1 5976   1.993   9.171   9.631
 1323SOL    HW2 5977   1.955   9.063   9.730
 1324SOL     OW 5978   6.345   3.783   0.489
 1324SOL    HW1 5979   6.413   3.840   0.453
 1324SOL    HW2 5980   6.320   3.825   0.571
 1325SOL     OW 5981  10.406   9.064   8.129
 1325SOL    HW1 5982  10.321   9.106   8.137
 1325SOL    HW2 5983  10.420   9.057   8.034
 1326SOL     OW 5984   7.307   1.030   7.531
 1326SOL    HW1 5985   7.330   1.111   7.576
 1326SOL    HW2 5986   7.390   0.983   7.521
 1327SOL     OW 5987  10.032   0.334   8.739
 1327SOL    HW1 5988   9.967   0.365   8.676
 1327SOL    HW2 5989  10.101   0.400   8.738
 1328SOL     OW 5990   9.678   3.680   6.258
 1328SOL    HW1 5991   9.766   3.646   6.273
 1328SOL    HW2 5992   9.687   3.736   6.181
 1329SOL     OW 5993   2.475   2.274  10.088
 1329SOL    HW1 5994   2.462   2.348  10.029
 1329SOL    HW2 5995   2.516   2.311  10.166
 1330SOL     OW 5996   1.141   0.802   5.008
 1330SOL    HW1 5997   1.055   0.815   4.968
 1330SOL    HW2 5998   1.126   0.814   5.101
 1331SOL     OW 5999  10.624  10.187   7.607
 1331SOL    HW1 6000  10.618  10.112   7.667
 1331SOL    HW2 6001  10.597  10.151   7.522
 1332SOL     OW 6002   9.906   1.919   2.437
 1332SOL    HW1 6003   9.887   1.840   2.385
 1332SOL    HW2 6004   9.833   1.978   2.418
 1333SOL     OW 6005   2.043   1.527   9.411
 1333SOL    HW1 6006   1.951   1.552   9.401
 1333SOL    HW2 6007   2.044   1.466   9.485
 1334SOL     OW 6008   9.058   8.806  10.664
 1334SOL    HW1 6009   9.049   8.895  10.630
 1334SOL    HW2 6010   9.033   8.749  10.590
 1335SOL     OW 6011  10.311   0.837   4.193
 1335SOL    HW1 6012  10.313   0.754   4.145
 1335SOL    HW2 6013  10.359   0.898   4.137
 1336SOL     OW 6014   4.685   1.722   3.602
 1336SOL    HW1 6015   4.780   1.733   3.607
 1336SOL    HW2 6016   4.651   1.811   3.598
 1337SOL     OW 6017   1.586   3.468   8.240
 1337SOL    HW1 6018   1.537   3.387   8.255
 1337SOL    HW2 6019   1.550   3.530   8.303
 1338SOL     OW 6020   1.125   1.743   6.224
 1338SOL    HW1 6021   1.193   1.803   6.255
 1338SOL    HW2 6022   1.047   1.768   6.273
 1339SOL     OW 6023   6.550   3.228   5.217
 1339SOL    HW1 6024   6.516   3.241   5.305
 1339SOL    HW2 6025   6.642   3.254   5.222
 1340SOL     OW 6026  10.799  10.948   5.512
 1340SOL    HW1 6027  10.761  11.028   5.548
 1340SOL    HW2 6028  10.800  10.963   5.417
 1341SOL     OW 6029  10.580  10.404   6.424
 1341SOL    HW1 6030  10.578  10.342   6.350
 1341SOL    HW2 6031  10.561  10.489   6.384
 1342SOL     OW 6032   2.858   4.048   3.838
 1342SOL    HW1 6033   2.897   3.966   3.808
 1342SOL    HW2 6034   2.876   4.051   3.932
 1343SOL     OW 6035   9.144   5.032   1.689
 1343SOL    HW1 6036   9.200   5.106   1.666
 1343SOL    HW2 6037   9.104   5.057   1.772
 1344SOL     OW 6038  10.289   6.896   7.439
 1344SOL    HW1 6039  10.195   6.885   7.422
 1344SOL    HW2 6040  10.324   6.932   7.357
 1345SOL     OW 6041  10.324   8.710   5.254
 1345SOL    HW1 6042  10.341   8.782   5.194
 1345SOL    HW2 6043  10.258   8.744   5.314
 1346SOL     OW 6044   1.621   1.941   7.849
 1346SOL    HW1 6045   1.552   2.003   7.869
 1346SOL    HW2 6046   1.606   1.868   7.909
 1347SOL     OW 6047   6.695   1.965   3.690
 1347SOL    HW1 6048   6.752   1.896   3.656
 1347SOL    HW2 6049   6.739   2.046   3.667
 1348SOL     OW 6050   6.699   7.191   2.804
 1348SOL    HW1 6051   6.728   7.205   2.714
 1348SOL    HW2 6052   6.678   7.097   2.807
 1349SOL     OW 6053   8.498   0.336   5.114
 1349SOL    HW1 6054   8.458   0.254   5.086
 1349SOL    HW2 6055   8.427   0.384   5.156
 1350SOL     OW 6056   1.049   3.813  10.937
 1350SOL    HW1 6057   0.992   3.830  10.862
 1350SOL    HW2 6058   1.107   3.742  10.907
 1351SOL     OW 6059   4.503   3.639   6.668
 1351SOL    HW1 6060   4.465   3.560   6.707
 1351SOL    HW2 6061   4.477   3.635   6.576
 1352SOL     OW 6062   7.206   0.492   0.261
 1352SOL    HW1 6063   7.170   0.407   0.235
 1352SOL    HW2 6064   7.164   0.555   0.202
 1353SOL     OW 6065   9.662   6.412   2.228
 1353SOL    HW1 6066   9.682   6.475   2.297
 1353SOL    HW2 6067   9.622   6.338   2.273
 1354SOL     OW 6068   0.289   6.803   0.449
 1354SOL    HW1 6069   0.333   6.768   0.371
 1354SOL    HW2 6070   0.223   6.737   0.470
 1355SOL     OW 6071   1.474   8.787   5.502
 1355SOL    HW1 6072   1.405   8.839   5.460
 1355SOL    HW2 6073   1.455   8.793   5.595
 1356SOL     OW 6074  10.159   9.121   7.462
 1356SOL    HW1 6075  10.080   9.095   7.414
 1356SOL    HW2 6076  10.149   9.215   7.476
 1357SOL     OW 6077   5.188   2.612   7.851
 1357SOL    HW1 6078   5.154   2.685   7.903
 1357SOL    HW2 6079   5.213   2.546   7.915
 1358SOL     OW 6080   2.685   1.879   2.882
 1358SOL    HW1 6081   2.712   1.939   2.951
 1358SOL    HW2 6082   2.730   1.797   2.902
 1359SOL     OW 6083   9.372   2.262   4.704
 1359SOL    HW1 6084   9.299   2.248   4.764
 1359SOL    HW2 6085   9.414   2.176   4.697
 1360SOL     OW 6086   1.351   0.267   2.843
 1360SOL    HW1 6087   1.351   0.356   2.877
 1360SOL    HW2 6088   1.360   0.278   2.748
 1361SOL     OW 6089  11.057   9.366   8.849
 1361SOL    HW1 6090  11.035   9.355   8.756
 1361SOL    HW2 6091  11.136   9.313   8.861
 1362SOL     OW 6092   1.767   1.895   1.136
 1362SOL    HW1 6093   1.757   1.840   1.214
 1362SOL    HW2 6094   1.844   1.949   1.154
 1363SOL     OW 6095   4.306   7.868   0.792
 1363SOL    HW1 6096   4.267   7.781   0.783
 1363SOL    HW2 6097   4.382   7.866   0.733
 1364SOL     OW 6098  11.001   4.686   1.984
 1364SOL    HW1 6099  10.936   4.637   1.934
 1364SOL    HW2 6100  10.972   4.777   1.979
 1365SOL     OW 6101   1.676  10.599   0.638
 1365SOL    HW1 6102   1.769  10.601   0.663
 1365SOL    HW2 6103   1.654  10.506   0.638
 1366SOL     OW 6104   6.528   1.851   1.809
 1366SOL    HW1 6105   6.446   1.822   1.770
 1366SOL    HW2 6106   6.502   1.895   1.889
 1367SOL     OW 6107   6.829   8.171   3.324
 1367SOL    HW1 6108   6.739   8.166   3.293
 1367SOL    HW2 6109   6.823   8.158   3.418
 1368SOL     OW 6110  10.572   5.169   9.216
 1368SOL    HW1 6111  10.645   5.199   9.270
 1368SOL    HW2 6112  10.545   5.086   9.256
 1369SOL     OW 6113   0.368   6.957   3.044
 1369SOL    HW1 6114   0.299   7.017   3.072
 1369SOL    HW2 6115   0.323   6.873   3.034
 1370SOL     OW 6116   0.629  10.036   0.600
 1370SOL    HW1 6117   0.624  10.036   0.504
 1370SOL    HW2 6118   0.709  10.085   0.620
 1371SOL     OW 6119   1.849   5.838   1.894
 1371SOL    HW1 6120   1.822   5.746   1.896
 1371SOL    HW2 6121   1.872   5.853   1.802
 1372SOL     OW 6122  10.494  10.498   5.391
 1372SOL    HW1 6123  10.566  10.435   5.385
 1372SOL    HW2 6124  10.505  10.539   5.477
 1373SOL     OW 6125   6.439   0.063   3.946
 1373SOL    HW1 6126   6.387   0.105   4.014
 1373SOL    HW2 6127   6.503   0.129   3.919
 1374SOL     OW 6128   0.500   7.932   3.856
 1374SOL    HW1 6129   0.587   7.903   3.883
 1374SOL    HW2 6130   0.440   7.877   3.906
 1375SOL     OW 6131   5.398   4.160   6.433
 1375SOL    HW1 6132   5.455   4.237   6.431
 1375SOL    HW2 6133   5.310   4.195   6.440
 1376SOL     OW 6134   3.332   0.721   9.270
 1376SOL    HW1 6135   3.402   0.661   9.243
 1376SOL    HW2 6136   3.326   0.784   9.198
 1377SOL     OW 6137   4.989   6.688   4.732
 1377SOL    HW1 6138   5.020   6.613   4.681
 1377SOL    HW2 6139   5.018   6.670   4.821
 1378SOL     OW 6140   5.587  10.759   6.784
 1378SOL    HW1 6141   5.641  10.712   6.720
 1378SOL    HW2 6142   5.591  10.705   6.862
 1379SOL     OW 6143  10.585   1.804   3.117
 1379SOL    HW1 6144  10.659   1.821   3.175
 1379SOL    HW2 6145  10.599   1.863   3.043
 1380SOL     OW 6146   5.675  10.016  10.309
 1380SOL    HW1 6147   5.709  10.079  10.372
 1380SOL    HW2 6148   5.582  10.037  10.301
 1381SOL     OW 6149   1.872   1.003   4.158
 1381SOL    HW1 6150   1.814   1.077   4.142
 1381SOL    HW2 6151   1.814   0.926   4.157
 1382SOL     OW 6152   0.214   8.195   2.735
 1382SOL    HW1 6153   0.181   8.155   2.815
 1382SOL    HW2 6154   0.302   8.225   2.757
 1383SOL     OW 6155   7.366   7.198   9.943
 1383SOL    HW1 6156   7.360   7.172   9.851
 1383SOL    HW2 6157   7.460   7.211   9.958
 1384SOL     OW 6158   4.960   7.409   8.241
 1384SOL    HW1 6159   5.015   7.469   8.190
 1384SOL    HW2 6160   4.941   7.337   8.180
 1385SOL     OW 6161   9.199   0.975   4.998
 1385SOL    HW1 6162   9.172   0.994   5.087
 1385SOL    HW2 6163   9.233   0.885   5.002
 1386SOL     OW 6164  10.925   5.010   9.311
 1386SOL    HW1 6165  11.007   5.056   9.328
 1386SOL    HW2 6166  10.857   5.075   9.327
 1387SOL     OW 6167   2.654   4.724   1.027
 1387SOL    HW1 6168   2.601   4.799   1.052
 1387SOL    HW2 6169   2.719   4.715   1.096
 1388SOL     OW 6170   9.322   8.023   2.869
 1388SOL    HW1 6171   9.253   7.988   2.925
 1388SOL    HW2 6172   9.284   8.102   2.831
 1389SOL     OW 6173   4.932   4.326   0.431
 1389SOL    HW1 6174   4.995   4.389   0.466
 1389SOL    HW2 6175   4.849   4.350   0.472
 1390SOL     OW 6176  10.019   5.706   3.026
 1390SOL    HW1 6177  10.021   5.754   3.108
 1390SOL    HW2 6178   9.942   5.650   3.032
 1391SOL     OW 6179   8.043   8.432   7.431
 1391SOL    HW1 6180   8.041   8.496   7.502
 1391SOL    HW2 6181   7.966   8.377   7.445
 1392SOL     OW 6182   0.863   2.925   0.936
 1392SOL    HW1 6183   0.849   2.955   0.846
 1392SOL    HW2 6184   0.861   3.005   0.988
 1393SOL     OW 6185   9.494   9.419   1.186
 1393SOL    HW1 6186   9.492   9.410   1.281
 1393SOL    HW2 6187   9.404   9.401   1.158
 1394SOL     OW 6188  11.093   2.519   2.482
 1394SOL    HW1 6189  11.153   2.507   2.555
 1394SOL    HW2 6190  11.018   2.565   2.519
 1395SOL     OW 6191   0.051   4.424  10.309
 1395SOL    HW1 6192  -0.007   4.347  10.307
 1395SOL    HW2 6193   0.136   4.388  10.332
 1396SOL     OW 6194   9.174   2.414   5.817
 1396SOL    HW1 6195   9.227   2.406   5.896
 1396SOL    HW2 6196   9.236   2.401   5.745
 1397SOL     OW 6197   0.752   1.855   0.863
 1397SOL    HW1 6198   0.806   1.867   0.941
 1397SOL    HW2 6199   0.726   1.763   0.866
 1398SOL     OW 6200   1.001   2.159   5.169
 1398SOL    HW1 6201   0.950   2.240   5.166
 1398SOL    HW2 6202   1.082   2.183   5.213
 1399SOL     OW 6203   0.328   0.727   0.587
 1399SOL    HW1 6204   0.299   0.704   0.498
 1399SOL    HW2 6205   0.418   0.756   0.576
 1400SOL     OW 6206   1.245   4.624   3.128
 1400SOL    HW1 6207   1.278   4.535   3.114
 1400SOL    HW2 6208   1.152   4.618   3.106
 1401SOL     OW 6209   0.281   6.624   0.713
 1401SOL    HW1 6210   0.241   6.636   0.799
 1401SOL    HW2 6211   0.341   6.698   0.704
 1402SOL     OW 6212   9.740   5.965   2.175
 1402SOL    HW1 6213   9.709   5.898   2.113
 1402SOL    HW2 6214   9.822   5.930   2.209
 1403SOL     OW 6215   8.362   2.942   3.076
 1403SOL    HW1 6216   8.337   3.034   3.083
 1403SOL    HW2 6217   8.456   2.944   3.055
 1404SOL     OW 6218   5.088   3.073   0.083
 1404SOL    HW1 6219   5.183   3.069   0.071
 1404SOL    HW2 6220   5.073   3.155   0.130
 1405SOL     OW 6221   5.937  11.022   4.773
 1405SOL    HW1 6222   5.953  10.973   4.692
 1405SOL    HW2 6223   5.891  10.960   4.830
 1406SOL     OW 6224   2.338  10.243   1.457
 1406SOL    HW1 6225   2.374  10.278   1.538
 1406SOL    HW2 6226   2.315  10.320   1.406
 1407SOL     OW 6227   1.761   1.658   1.997
 1407SOL    HW1 6228   1.691   1.594   1.980
 1407SOL    HW2 6229   1.808   1.664   1.913
 1408SOL     OW 6230   6.719   5.130   2.862
 1408SOL    HW1 6231   6.773   5.185   2.918
 1408SOL    HW2 6232   6.771   5.118   2.782
 1409SOL     OW 6233   6.030   8.741  10.171
 1409SOL    HW1 6234   5.983   8.661  10.145
 1409SOL    HW2 6235   6.122   8.720  10.155
 1410SOL     OW 6236   0.084   0.620  10.949
 1410SOL    HW1 6237   0.162   0.661  10.912
 1410SOL    HW2 6238   0.117   0.541  10.992
 1411SOL     OW 6239  10.063  10.313   5.460
 1411SOL    HW1 6240  10.089  10.335   5.549
 1411SOL    HW2 6241  10.146  10.295   5.415
 1412SOL     OW 6242   2.071   6.577   5.973
 1412SOL    HW1 6243   2.032   6.553   5.889
 1412SOL    HW2 6244   2.011   6.642   6.009
 1413SOL     OW 6245   5.416   2.301   4.422
 1413SOL    HW1 6246   5.347   2.356   4.457
 1413SOL    HW2 6247   5.392   2.289   4.330
 1414SOL     OW 6248   8.966   2.289   7.987
 1414SOL    HW1 6249   8.961   2.195   8.006
 1414SOL    HW2 6250   9.040   2.297   7.927
 1415SOL     OW 6251   1.243   3.519  11.012
 1415SOL    HW1 6252   1.334   3.513  11.041
 1415SOL    HW2 6253   1.191   3.497  11.089
 1416SOL     OW 6254   3.098   2.969   1.926
 1416SOL    HW1 6255   3.039   3.013   1.865
 1416SOL    HW2 6256   3.149   2.909   1.871
 1417SOL     OW 6257   7.284   4.599   7.667
 1417SOL    HW1 6258   7.330   4.516   7.681
 1417SOL    HW2 6259   7.214   4.599   7.732
 1418SOL     OW 6260   0.297  10.121   4.644
 1418SOL    HW1 6261   0.298  10.174   4.723
 1418SOL    HW2 6262   0.234  10.164   4.586
 1419SOL     OW 6263   3.324   4.523   4.804
 1419SOL    HW1 6264   3.336   4.524   4.709
 1419SOL    HW2 6265   3.410   4.546   4.839
 1420SOL     OW 6266   1.953   3.636   5.318
 1420SOL    HW1 6267   1.943   3.598   5.230
 1420SOL    HW2 6268   1.971   3.728   5.302
 1421SOL     OW 6269  10.093  10.657   9.483
 1421SOL    HW1 6270  10.119  10.614   9.564
 1421SOL    HW2 6271  10.164  10.718   9.464
 1422SOL     OW 6272   0.506   3.815   1.139
 1422SOL    HW1 6273   0.518   3.780   1.050
 1422SOL    HW2 6274   0.538   3.745   1.196
 1423SOL     OW 6275   0.551   2.032   2.218
 1423SOL    HW1 6276   0.471   1.990   2.249
 1423SOL    HW2 6277   0.524   2.079   2.139
 1424SOL     OW 6278   5.314   8.090   8.852
 1424SOL    HW1 6279   5.390   8.080   8.910
 1424SOL    HW2 6280   5.250   8.026   8.884
 1425SOL     OW 6281   1.791   3.201   3.035
 1425SOL    HW1 6282   1.877   3.197   3.078
 1425SOL    HW2 6283   1.808   3.172   2.945
 1426SOL     OW 6284   9.708   6.141  10.600
 1426SOL    HW1 6285   9.698   6.113  10.509
 1426SOL    HW2 6286   9.784   6.199  10.599
 1427SOL     OW 6287   4.000   5.247  10.420
 1427SOL    HW1 6288   4.002   5.234  10.325
 1427SOL    HW2 6289   4.061   5.319  10.436
 1428SOL     OW 6290   7.607   7.014   0.000
 1428SOL    HW1 6291   7.633   6.983   0.087
 1428SOL    HW2 6292   7.513   6.996  -0.004
 1429SOL     OW 6293   6.707   5.720   4.066
 1429SOL    HW1 6294   6.666   5.778   4.002
 1429SOL    HW2 6295   6.762   5.777   4.119
 1430SOL     OW 6296   3.384   6.305   0.464
 1430SOL    HW1 6297   3.380   6.265   0.551
 1430SOL    HW2 6298   3.429   6.388   0.478
 1431SOL     OW 6299   8.541   2.635   3.160
 1431SOL    HW1 6300   8.561   2.576   3.087
 1431SOL    HW2 6301   8.627   2.662   3.193
 1432SOL     OW 6302  10.154   1.804   1.573
 1432SOL    HW1 6303  10.164   1.723   1.623
 1432SOL    HW2 6304  10.214   1.793   1.499
 1433SOL     OW 6305   8.311  11.047   3.063
 1433SOL    HW1 6306   8.282  11.112   3.127
 1433SOL    HW2 6307   8.234  11.030   3.009
 1434SOL     OW 6308   9.638   1.506   2.614
 1434SOL    HW1 6309   9.681   1.425   2.586
 1434SOL    HW2 6310   9.655   1.511   2.708
 1435SOL     OW 6311   2.783  10.983   3.936
 1435SOL    HW1 6312   2.778  11.056   3.997
 1435SOL    HW2 6313   2.806  11.023   3.852
 1436SOL     OW 6314   3.303   1.050  10.962
 1436SOL    HW1 6315   3.396   1.066  10.978
 1436SOL    HW2 6316   3.274   0.998  11.037
 1437SOL     OW 6317   0.331   7.296   5.594
 1437SOL    HW1 6318   0.357   7.221   5.648
 1437SOL    HW2 6319   0.252   7.266   5.549
 1438SOL     OW 6320   4.598   6.149   1.421
 1438SOL    HW1 6321   4.557   6.177   1.339
 1438SOL    HW2 6322   4.544   6.076   1.451
 1439SOL     OW 6323   2.816   9.589   9.105
 1439SOL    HW1 6324   2.731   9.574   9.147
 1439SOL    HW2 6325   2.816   9.682   9.083
 1440SOL     OW 6326   5.895   0.675   2.307
 1440SOL    HW1 6327   5.867   0.676   2.398
 1440SOL    HW2 6328   5.924   0.764   2.290
 1441SOL     OW 6329  10.802   9.112   4.098
 1441SOL    HW1 6330  10.716   9.072   4.090
 1441SOL    HW2 6331  10.861   9.038   4.117
 1442SOL     OW 6332   0.118   1.056   0.868
 1442SOL    HW1 6333   0.105   0.984   0.806
 1442SOL    HW2 6334   0.037   1.058   0.919
 1443SOL     OW 6335   7.563   2.183   1.405
 1443SOL    HW1 6336   7.572   2.277   1.393
 1443SOL    HW2 6337   7.621   2.162   1.478
 1444SOL     OW 6338   1.783   3.856   9.048
 1444SOL    HW1 6339   1.700   3.811   9.066
 1444SOL    HW2 6340   1.762   3.949   9.051
 1445SOL     OW 6341   2.827   8.459   2.296
 1445SOL    HW1 6342   2.800   8.372   2.265
 1445SOL    HW2 6343   2.801   8.461   2.388
 1446SOL     OW 6344   2.239   6.248   1.897
 1446SOL    HW1 6345   2.295   6.325   1.899
 1446SOL    HW2 6346   2.300   6.174   1.897
 1447SOL     OW 6347   2.586  10.993   8.226
 1447SOL    HW1 6348   2.651  11.052   8.186
 1447SOL    HW2 6349   2.507  11.006   8.174
 1448SOL     OW 6350   1.442   7.288   2.677
 1448SOL    HW1 6351   1.423   7.366   2.729
 1448SOL    HW2 6352   1.356   7.255   2.650
 1449SOL     OW 6353   2.413   3.277   3.319
 1449SOL    HW1 6354   2.478   3.272   3.389
 1449SOL    HW2 6355   2.337   3.229   3.353
 1450SOL     OW 6356   4.049   3.989   9.191
 1450SOL    HW1 6357   4.054   4.071   9.239
 1450SOL    HW2 6358   4.073   3.922   9.255
 1451SOL     OW 6359   2.315  10.387  10.501
 1451SOL    HW1 6360   2.333  10.311  10.445
 1451SOL    HW2 6361   2.375  10.376  10.574
 1452SOL     OW 6362   0.863   8.977   4.775
 1452SOL    HW1 6363   0.867   8.883   4.792
 1452SOL    HW2 6364   0.847   8.984   4.681
 1453SOL     OW 6365   4.543   9.280  10.190
 1453SOL    HW1 6366   4.487   9.348  10.153
 1453SOL    HW2 6367   4.609   9.328  10.239
 1454SOL     OW 6368   0.124   8.990   0.890
 1454SOL    HW1 6369   0.090   9.061   0.944
 1454SOL    HW2 6370   0.187   8.944   0.946
 1455SOL     OW 6371   7.703   7.374   1.279
 1455SOL    HW1 6372   7.619   7.407   1.311
 1455SOL    HW2 6373   7.763   7.385   1.352
 1456SOL     OW 6374   0.439   4.773   3.095
 1456SOL    HW1 6375   0.388   4.760   3.015
 1456SOL    HW2 6376   0.375   4.764   3.165
 1457SOL     OW 6377   5.760   7.679   9.296
 1457SOL    HW1 6378   5.812   7.719   9.365
 1457SOL    HW2 6379   5.686   7.639   9.341
 1458SOL     OW 6380   9.451   5.463   7.269
 1458SOL    HW1 6381   9.429   5.382   7.222
 1458SOL    HW2 6382   9.525   5.439   7.324
 1459SOL     OW 6383   3.052   3.244  11.053
 1459SOL    HW1 6384   2.980   3.306  11.061
 1459SOL    HW2 6385   3.084   3.256  10.963
 1460SOL     OW 6386   8.433   3.262   0.459
 1460SOL    HW1 6387   8.416   3.353   0.434
 1460SOL    HW2 6388   8.396   3.210   0.387
 1461SOL     OW 6389   2.183  10.940   4.080
 1461SOL    HW1 6390   2.121  10.899   4.140
 1461SOL    HW2 6391   2.172  10.893   3.997
 1462SOL     OW 6392   6.933   6.387   0.651
 1462SOL    HW1 6393   7.003   6.348   0.704
 1462SOL    HW2 6394   6.973   6.465   0.613
 1463SOL     OW 6395   6.834   3.984   1.618
 1463SOL    HW1 6396   6.899   4.053   1.605
 1463SOL    HW2 6397   6.798   4.000   1.705
 1464SOL     OW 6398   4.487   3.533   4.689
 1464SOL    HW1 6399   4.500   3.525   4.594
 1464SOL    HW2 6400   4.437   3.455   4.713
 1465SOL     OW 6401   0.515   7.826   5.691
 1465SOL    HW1 6402   0.487   7.790   5.775
 1465SOL    HW2 6403   0.605   7.855   5.706
 1466SOL     OW 6404   9.588   6.882   0.100
 1466SOL    HW1 6405   9.672   6.926   0.111
 1466SOL    HW2 6406   9.541   6.935   0.036
 1467SOL     OW 6407   1.453   5.930   0.479
 1467SOL    HW1 6408   1.419   5.859   0.534
 1467SOL    HW2 6409   1.541   5.947   0.513
 1468SOL     OW 6410  10.023   9.438   1.050
 1468SOL    HW1 6411   9.937   9.450   1.011
 1468SOL    HW2 6412  10.084   9.470   0.983
 1469SOL     OW 6413   3.624   0.855   9.237
 1469SOL    HW1 6414   3.645   0.869   9.144
 1469SOL    HW2 6415   3.611   0.760   9.244
 1470SOL     OW 6416  10.821   9.847   1.326
 1470SOL    HW1 6417  10.868   9.928   1.346
 1470SOL    HW2 6418  10.805   9.806   1.411
 1471SOL     OW 6419   1.091   5.312   6.194
 1471SOL    HW1 6420   1.168   5.254   6.190
 1471SOL    HW2 6421   1.125   5.399   6.174
 1472SOL     OW 6422   0.984   7.879   5.247
 1472SOL    HW1 6423   1.056   7.849   5.303
 1472SOL    HW2 6424   1.028   7.917   5.170
 1473SOL     OW 6425  10.306   0.722   8.572
 1473SOL    HW1 6426  10.382   0.714   8.514
 1473SOL    HW2 6427  10.291   0.816   8.580
 1474SOL     OW 6428   4.929   3.300   7.003
 1474SOL    HW1 6429   4.834   3.302   7.013
 1474SOL    HW2 6430   4.947   3.214   6.964
 1475SOL     OW 6431   8.555   2.082   5.831
 1475SOL    HW1 6432   8.606   2.001   5.840
 1475SOL    HW2 6433   8.483   2.058   5.772
 1476SOL     OW 6434   3.043   2.459   0.630
 1476SOL    HW1 6435   3.052   2.554   0.625
 1476SOL    HW2 6436   2.992   2.436   0.552
 1477SOL     OW 6437  10.689   3.256   0.457
 1477SOL    HW1 6438  10.734   3.279   0.375
 1477SOL    HW2 6439  10.597   3.251   0.433
 1478SOL     OW 6440   1.073   3.138   2.558
 1478SOL    HW1 6441   1.128   3.086   2.616
 1478SOL    HW2 6442   1.034   3.204   2.614
 1479SOL     OW 6443   6.897   1.822   3.556
 1479SOL    HW1 6444   6.944   1.899   3.526
 1479SOL    HW2 6445   6.902   1.761   3.482
 1480SOL     OW 6446   5.509   9.720   9.794
 1480SOL    HW1 6447   5.575   9.709   9.725
 1480SOL    HW2 6448   5.500   9.632   9.832
 1481SOL     OW 6449  10.658   3.036   9.844
 1481SOL    HW1 6450  10.699   2.950   9.832
 1481SOL    HW2 6451  10.670   3.080   9.759
 1482SOL     OW 6452  10.959   3.381   5.954
 1482SOL    HW1 6453  10.997   3.353   6.037
 1482SOL    HW2 6454  10.895   3.447   5.978
 1483SOL     OW 6455   0.036   4.136   3.039
 1483SOL    HW1 6456  -0.046   4.183   3.053
 1483SOL    HW2 6457   0.093   4.165   3.110
 1484SOL     OW 6458   3.727   1.613  10.423
 1484SOL    HW1 6459   3.807   1.560  10.427
 1484SOL    HW2 6460   3.748   1.683  10.362
 1485SOL     OW 6461   7.951   3.509   6.882
 1485SOL    HW1 6462   7.883   3.554   6.932
 1485SOL    HW2 6463   7.915   3.502   6.793
 1486SOL     OW 6464  10.181   5.043   1.865
 1486SOL    HW1 6465  10.206   4.951   1.855
 1486SOL    HW2 6466  10.264   5.090   1.863
 1487SOL     OW 6467   5.931  10.415   4.747
 1487SOL    HW1 6468   5.894  10.480   4.687
 1487SOL    HW2 6469   5.860  10.352   4.761
 1488SOL     OW 6470   7.307   7.470   5.482
 1488SOL    HW1 6471   7.215   7.447   5.492
 1488SOL    HW2 6472   7.336   7.420   5.405
 1489SOL     OW 6473  10.654   6.965   3.850
 1489SOL    HW1 6474  10.653   6.870   3.839
 1489SOL    HW2 6475  10.576   6.984   3.902
 1490SOL     OW 6476  10.959   3.015  10.853
 1490SOL    HW1 6477  10.953   2.926  10.888
 1490SOL    HW2 6478  10.942   3.071  10.928
 1491SOL     OW 6479   8.814   2.099   6.571
 1491SOL    HW1 6480   8.885   2.038   6.594
 1491SOL    HW2 6481   8.850   2.186   6.590
 1492SOL     OW 6482   5.746   6.771   4.782
 1492SOL    HW1 6483   5.790   6.807   4.859
 1492SOL    HW2 6484   5.654   6.769   4.806
 1493SOL     OW 6485   5.779   6.365   9.255
 1493SOL    HW1 6486   5.811   6.428   9.190
 1493SOL    HW2 6487   5.846   6.296   9.257
 1494SOL     OW 6488   7.356   3.052   4.926
 1494SOL    HW1 6489   7.326   3.085   4.841
 1494SOL    HW2 6490   7.280   3.060   4.983
 1495SOL     OW 6491   9.343   1.253   1.149
 1495SOL    HW1 6492   9.350   1.167   1.192
 1495SOL    HW2 6493   9.258   1.251   1.105
 1496SOL     OW 6494   1.258   4.651   2.021
 1496SOL    HW1 6495   1.180   4.595   2.015
 1496SOL    HW2 6496   1.227   4.731   2.062
 1497SOL     OW 6497   2.250   5.295   6.948
 1497SOL    HW1 6498   2.180   5.325   7.005
 1497SOL    HW2 6499   2.331   5.316   6.995
 1498SOL     OW 6500   0.218   3.691   1.061
 1498SOL    HW1 6501   0.238   3.784   1.060
 1498SOL    HW2 6502   0.300   3.648   1.035
 1499SOL     OW 6503   2.586   9.465   9.162
 1499SOL    HW1 6504   2.594   9.373   9.136
 1499SOL    HW2 6505   2.511   9.467   9.221
 1500SOL     OW 6506   4.100   4.523   2.670
 1500SOL    HW1 6507   4.068   4.499   2.757
 1500SOL    HW2 6508   4.026   4.568   2.629
 1501SOL     OW 6509   8.460   5.596   0.248
 1501SOL    HW1 6510   8.431   5.534   0.180
 1501SOL    HW2 6511   8.502   5.667   0.199
 1502SOL     OW 6512   7.086   9.811   4.337
 1502SOL    HW1 6513   7.089   9.857   4.253
 1502SOL    HW2 6514   7.115   9.722   4.316
 1503SOL     OW 6515   0.364   0.532   1.416
 1503SOL    HW1 6516   0.358   0.566   1.505
 1503SOL    HW2 6517   0.351   0.437   1.425
 1504SOL     OW 6518   8.887   2.843   7.611
 1504SOL    HW1 6519   8.867   2.913   7.549
 1504SOL    HW2 6520   8.896   2.765   7.556
 1505SOL     OW 6521   4.433   9.002   4.783
 1505SOL    HW1 6522   4.385   8.968   4.707
 1505SOL    HW2 6523   4.466   8.923   4.827
 1506SOL     OW 6524   0.843  10.173   6.270
 1506SOL    HW1 6525   0.782  10.201   6.202
 1506SOL    HW2 6526   0.881  10.254   6.303
 1507SOL     OW 6527   1.355   6.558   8.365
 1507SOL    HW1 6528   1.360   6.578   8.271
 1507SOL    HW2 6529   1.366   6.642   8.409
 1508SOL     OW 6530   3.201   2.457   9.581
 1508SOL    HW1 6531   3.122   2.508   9.567
 1508SOL    HW2 6532   3.194   2.427   9.671
 1509SOL     OW 6533   2.440   4.968   5.989
 1509SOL    HW1 6534   2.437   4.896   6.052
 1509SOL    HW2 6535   2.529   4.964   5.952
 1510SOL     OW 6536   9.295   2.793   5.952
 1510SOL    HW1 6537   9.207   2.805   5.918
 1510SOL    HW2 6538   9.314   2.873   6.001
 1511SOL     OW 6539   9.255   4.816   8.492
 1511SOL    HW1 6540   9.205   4.758   8.434
 1511SOL    HW2 6541   9.341   4.775   8.498
 1512SOL     OW 6542   2.135   3.754   8.133
 1512SOL    HW1 6543   2.216   3.733   8.179
 1512SOL    HW2 6544   2.139   3.848   8.119
 1513SOL     OW 6545  10.833   3.910   0.646
 1513SOL    HW1 6546  10.761   3.935   0.704
 1513SOL    HW2 6547  10.856   3.821   0.673
 1514SOL     OW 6548   3.217   3.735   0.635
 1514SOL    HW1 6549   3.183   3.811   0.682
 1514SOL    HW2 6550   3.312   3.739   0.648
 1515SOL     OW 6551  10.884   2.912   2.508
 1515SOL    HW1 6552  10.964   2.911   2.455
 1515SOL    HW2 6553  10.909   2.956   2.589
 1516SOL     OW 6554   1.530   8.429   0.934
 1516SOL    HW1 6555   1.601   8.389   0.883
 1516SOL    HW2 6556   1.569   8.509   0.970
 1517SOL     OW 6557   9.350   5.556   7.883
 1517SOL    HW1 6558   9.331   5.464   7.861
 1517SOL    HW2 6559   9.375   5.554   7.975
 1518SOL     OW 6560   9.547   2.763   4.159
 1518SOL    HW1 6561   9.483   2.770   4.088
 1518SOL    HW2 6562   9.507   2.701   4.220
 1519SOL     OW 6563   2.577   8.467   7.648
 1519SOL    HW1 6564   2.550   8.375   7.646
 1519SOL    HW2 6565   2.669   8.464   7.675
 1520SOL     OW 6566   1.100   3.510   8.774
 1520SOL    HW1 6567   1.120   3.510   8.680
 1520SOL    HW2 6568   1.153   3.581   8.810
 1521SOL     OW 6569   2.218   9.591   6.019
 1521SOL    HW1 6570   2.259   9.602   5.933
 1521SOL    HW2 6571   2.241   9.670   6.067
 1522SOL     OW 6572   0.471   2.192   0.249
 1522SOL    HW1 6573   0.492   2.165   0.159
 1522SOL    HW2 6574   0.546   2.244   0.277
 1523SOL     OW 6575  10.575   2.252   3.800
 1523SOL    HW1 6576  10.564   2.158   3.817
 1523SOL    HW2 6577  10.651   2.277   3.853
 1524SOL     OW 6578   8.415   2.349  10.575
 1524SOL    HW1 6579   8.401   2.392  10.659
 1524SOL    HW2 6580   8.394   2.257  10.591
 1525SOL     OW 6581  11.063   1.897   9.141
 1525SOL    HW1 6582  11.022   1.859   9.218
 1525SOL    HW2 6583  11.018   1.980   9.129
 1526SOL     OW 6584   3.620  11.063   2.300
 1526SOL    HW1 6585   3.674  11.142   2.301
 1526SOL    HW2 6586   3.643  11.020   2.217
 1527SOL     OW 6587   3.036   3.954   1.692
 1527SOL    HW1 6588   2.943   3.958   1.713
 1527SOL    HW2 6589   3.066   4.044   1.700
 1528SOL     OW 6590   6.292   5.847   7.584
 1528SOL    HW1 6591   6.312   5.923   7.639
 1528SOL    HW2 6592   6.197   5.846   7.577
 1529SOL     OW 6593   4.034   7.654   0.671
 1529SOL    HW1 6594   4.054   7.672   0.762
 1529SOL    HW2 6595   3.984   7.572   0.673
 1530SOL     OW 6596   2.774   0.845   4.956
 1530SOL    HW1 6597   2.822   0.870   5.035
 1530SOL    HW2 6598   2.791   0.916   4.894
 1531SOL     OW 6599   0.878   2.079   9.584
 1531SOL    HW1 6600   0.898   2.151   9.644
 1531SOL    HW2 6601   0.797   2.105   9.541
 1532SOL     OW 6602   9.602   3.972   8.075
 1532SOL    HW1 6603   9.662   3.901   8.097
 1532SOL    HW2 6604   9.633   4.004   7.990
 1533SOL     OW 6605   2.112   2.661   1.065
 1533SOL    HW1 6606   2.124   2.755   1.055
 1533SOL    HW2 6607   2.129   2.643   1.157
 1534SOL     OW 6608   4.463   0.779   7.791
 1534SOL    HW1 6609   4.452   0.688   7.764
 1534SOL    HW2 6610   4.549   0.804   7.758
 1535SOL     OW 6611   9.234   1.102   9.405
 1535SOL    HW1 6612   9.152   1.111   9.356
 1535SOL    HW2 6613   9.301   1.089   9.338
 1536SOL     OW 6614   5.092   2.358  10.900
 1536SOL    HW1 6615   5.051   2.371  10.985
 1536SOL    HW2 6616   5.094   2.445  10.861
 1537SOL     OW 6617   1.448  10.148   2.383
 1537SOL    HW1 6618   1.464  10.169   2.475
 1537SOL    HW2 6619   1.515  10.083   2.361
 1538SOL     OW 6620   3.844   2.171   8.474
 1538SOL    HW1 6621   3.924   2.125   8.447
 1538SOL    HW2 6622   3.872   2.228   8.545
 1539SOL     OW 6623   2.518   7.817   1.053
 1539SOL    HW1 6624   2.564   7.900   1.063
 1539SOL    HW2 6625   2.551   7.781   0.970
 1540SOL     OW 6626   1.265   3.989  10.908
 1540SOL    HW1 6627   1.204   3.927  10.948
 1540SOL    HW2 6628   1.249   3.981  10.814
 1541SOL     OW 6629   5.687   1.500   6.185
 1541SOL    HW1 6630   5.663   1.439   6.115
 1541SOL    HW2 6631   5.713   1.579   6.139
 1542SOL     OW 6632   7.284   8.085   1.447
 1542SOL    HW1 6633   7.212   8.047   1.396
 1542SOL    HW2 6634   7.332   8.139   1.384
 1543SOL     OW 6635   2.256  10.707   0.058
 1543SOL    HW1 6636   2.285  10.617   0.074
 1543SOL    HW2 6637   2.337  10.757   0.048
 1544SOL     OW 6638  10.900   3.957   0.359
 1544SOL    HW1 6639  10.884   3.955   0.453
 1544SOL    HW2 6640  10.994   3.940   0.350
 1545SOL     OW 6641  10.860   6.068  10.442
 1545SOL    HW1 6642  10.879   6.155  10.477
 1545SOL    HW2 6643  10.946   6.028  10.427
 1546SOL     OW 6644  10.197   2.129   3.671
 1546SOL    HW1 6645  10.186   2.191   3.599
 1546SOL    HW2 6646  10.151   2.169   3.744
 1547SOL     OW 6647   3.068  10.994   0.568
 1547SOL    HW1 6648   3.006  10.963   0.634
 1547SOL    HW2 6649   3.028  11.072   0.531
 1548SOL     OW 6650   3.952   8.749   8.382
 1548SOL    HW1 6651   3.992   8.825   8.341
 1548SOL    HW2 6652   4.016   8.720   8.447
 1549SOL     OW 6653   6.885   5.288   9.950
 1549SOL    HW1 6654   6.819   5.354   9.928
 1549SOL    HW2 6655   6.910   5.307  10.040
 1550SOL     OW 6656   5.696   5.210   1.553
 1550SOL    HW1 6657   5.762   5.175   1.613
 1550SOL    HW2 6658   5.747   5.247   1.481
 1551SOL     OW 6659   2.686   5.221   3.692
 1551SOL    HW1 6660   2.717   5.275   3.764
 1551SOL    HW2 6661   2.701   5.131   3.721
 1552SOL     OW 6662   3.290   4.759   6.380
 1552SOL    HW1 6663   3.329   4.815   6.313
 1552SOL    HW2 6664   3.343   4.679   6.379
 1553SOL     OW 6665   9.528   2.654   3.793
 1553SOL    HW1 6666   9.556   2.610   3.873
 1553SOL    HW2 6667   9.602   2.710   3.769
 1554SOL     OW 6668   1.684   0.594   8.618
 1554SOL    HW1 6669   1.661   0.551   8.535
 1554SOL    HW2 6670   1.636   0.544   8.684
 1555SOL     OW 6671  10.360   7.743   4.331
 1555SOL    HW1 6672  10.371   7.838   4.330
 1555SOL    HW2 6673  10.424   7.710   4.267
 1556SOL     OW 6674   4.892   5.073  10.034
 1556SOL    HW1 6675   4.821   5.047   9.976
 1556SOL    HW2 6676   4.858   5.148  10.082
 1557SOL     OW 6677   4.029   2.780   0.264
 1557SOL    HW1 6678   3.988   2.744   0.185
 1557SOL    HW2 6679   4.016   2.712   0.330
 1558SOL     OW 6680   6.234   7.699   0.337
 1558SOL    HW1 6681   6.153   7.714   0.288
 1558SOL    HW2 6682   6.206   7.650   0.414
 1559SOL     OW 6683   5.607   1.504   2.380
 1559SOL    HW1 6684   5.537   1.529   2.319
 1559SOL    HW2 6685   5.580   1.540   2.464
 1560SOL     OW 6686   3.409   8.817   2.950
 1560SOL    HW1 6687   3.412   8.911   2.933
 1560SOL    HW2 6688   3.499   8.787   2.938
 1561SOL     OW 6689  10.660   8.586   2.623
 1561SOL    HW1 6690  10.577   8.540   2.637
 1561SOL    HW2 6691  10.642   8.677   2.647
 1562SOL     OW 6692   3.326   6.458   8.627
 1562SOL    HW1 6693   3.232   6.475   8.630
 1562SOL    HW2 6694   3.357   6.478   8.715
 1563SOL     OW 6695   9.461   0.760   6.363
 1563SOL    HW1 6696   9.547   0.802   6.362
 1563SOL    HW2 6697   9.454   0.722   6.450
 1564SOL     OW 6698   0.109   7.583   7.167
 1564SOL    HW1 6699   0.174   7.622   7.109
 1564SOL    HW2 6700   0.059   7.657   7.201
 1565SOL     OW 6701  10.265   7.247   9.703
 1565SOL    HW1 6702  10.182   7.288   9.725
 1565SOL    HW2 6703  10.262   7.161   9.746
 1566SOL     OW 6704   3.614   8.240   4.124
 1566SOL    HW1 6705   3.686   8.177   4.127
 1566SOL    HW2 6706   3.655   8.322   4.096
 1567SOL     OW 6707  11.065   0.035   4.926
 1567SOL    HW1 6708  11.128   0.035   4.998
 1567SOL    HW2 6709  11.050   0.127   4.906
 1568SOL     OW 6710   2.150   1.891   2.834
 1568SOL    HW1 6711   2.215   1.923   2.896
 1568SOL    HW2 6712   2.131   1.801   2.863
 1569SOL     OW 6713   5.655   6.177   3.035
 1569SOL    HW1 6714   5.678   6.243   2.970
 1569SOL    HW2 6715   5.720   6.107   3.022
 1570SOL     OW 6716   1.508   1.120   5.497
 1570SOL    HW1 6717   1.537   1.165   5.576
 1570SOL    HW2 6718   1.434   1.172   5.465
 1571SOL     OW 6719   0.670   6.942  10.355
 1571SOL    HW1 6720   0.750   6.994  10.344
 1571SOL    HW2 6721   0.600   6.997  10.321
 1572SOL     OW 6722   9.274  10.984   5.809
 1572SOL    HW1 6723   9.346  10.985   5.872
 1572SOL    HW2 6724   9.317  10.984   5.723
 1573SOL     OW 6725  10.974   9.517   8.336
 1573SOL    HW1 6726  10.960   9.423   8.352
 1573SOL    HW2 6727  11.068   9.525   8.320
 1574SOL     OW 6728   1.608  10.012   4.912
 1574SOL    HW1 6729   1.697  10.006   4.948
 1574SOL    HW2 6730   1.572  10.092   4.950
 1575SOL     OW 6731   4.678   0.218   8.083
 1575SOL    HW1 6732   4.702   0.253   7.997
 1575SOL    HW2 6733   4.625   0.141   8.063
 1576SOL     OW 6734   0.271   3.304   0.796
 1576SOL    HW1 6735   0.176   3.305   0.787
 1576SOL    HW2 6736   0.296   3.213   0.780
 1577SOL     OW 6737   2.725   1.118   2.846
 1577SOL    HW1 6738   2.716   1.059   2.920
 1577SOL    HW2 6739   2.727   1.205   2.884
 1578SOL     OW 6740   4.019   2.571   3.696
 1578SOL    HW1 6741   3.980   2.502   3.642
 1578SOL    HW2 6742   4.111   2.575   3.668
 1579SOL     OW 6743   4.665   9.194   1.910
 1579SOL    HW1 6744   4.719   9.251   1.964
 1579SOL    HW2 6745   4.634   9.126   1.970
 1580SOL     OW 6746   0.811   2.545   8.773
 1580SOL    HW1 6747   0.794   2.500   8.856
 1580SOL    HW2 6748   0.873   2.614   8.795
 1581SOL     OW 6749   7.660   4.727   3.866
 1581SOL    HW1 6750   7.607   4.714   3.787
 1581SOL    HW2 6751   7.603   4.777   3.925
 1582SOL     OW 6752   3.036   9.420   2.719
 1582SOL    HW1 6753   3.023   9.342   2.773
 1582SOL    HW2 6754   2.959   9.474   2.735
 1583SOL     OW 6755   5.200  10.068   3.457
 1583SOL    HW1 6756   5.183  10.127   3.384
 1583SOL    HW2 6757   5.276  10.017   3.429
 1584SOL     OW 6758   6.702   3.583   8.196
 1584SOL    HW1 6759   6.779   3.569   8.251
 1584SOL    HW2 6760   6.656   3.656   8.236
 1585SOL     OW 6761   1.725   7.538   4.270
 1585SOL    HW1 6762   1.725   7.462   4.328
 1585SOL    HW2 6763   1.750   7.503   4.184
 1586SOL     OW 6764   3.792   9.202   6.717
 1586SOL    HW1 6765   3.777   9.151   6.637
 1586SOL    HW2 6766   3.886   9.193   6.734
 1587SOL     OW 6767   5.503   1.281   2.759
 1587SOL    HW1 6768   5.586   1.236   2.779
 1587SOL    HW2 6769   5.464   1.228   2.689
 1588SOL     OW 6770   2.176   4.964   2.008
 1588SOL    HW1 6771   2.186   5.027   2.079
 1588SOL    HW2 6772   2.178   5.017   1.928
 1589SOL     OW 6773   6.318   4.096   4.412
 1589SOL    HW1 6774   6.340   4.105   4.504
 1589SOL    HW2 6775   6.351   4.176   4.371
 1590SOL     OW 6776   3.419   9.013   8.099
 1590SOL    HW1 6777   3.507   8.994   8.131
 1590SOL    HW2 6778   3.364   9.009   8.177
 1591SOL     OW 6779   9.529   7.970   3.047
 1591SOL    HW1 6780   9.460   7.954   2.982
 1591SOL    HW2 6781   9.492   7.941   3.130
 1592SOL     OW 6782  10.481   0.597  11.045
 1592SOL    HW1 6783  10.480   0.603  10.949
 1592SOL    HW2 6784  10.389   0.585  11.069
 1593SOL     OW 6785   3.788   6.706   3.326
 1593SOL    HW1 6786   3.717   6.645   3.308
 1593SOL    HW2 6787   3.746   6.780   3.370
 1594SOL     OW 6788  10.201   2.874  10.860
 1594SOL    HW1 6789  10.181   2.938  10.792
 1594SOL    HW2 6790  10.120   2.824  10.871
 1595SOL     OW 6791   2.869   0.896  10.943
 1595SOL    HW1 6792   2.931   0.965  10.921
 1595SOL    HW2 6793   2.784   0.931  10.917
 1596SOL     OW 6794   0.781   6.397   1.618
 1596SOL    HW1 6795   0.815   6.484   1.599
 1596SOL    HW2 6796   0.729   6.374   1.541
 1597SOL     OW 6797   9.650  10.069   3.865
 1597SOL    HW1 6798   9.672  10.005   3.933
 1597SOL    HW2 6799   9.725  10.129   3.863
 1598SOL     OW 6800   3.869   0.884   3.461
 1598SOL    HW1 6801   3.905   0.972   3.449
 1598SOL    HW2 6802   3.889   0.839   3.379
 1599SOL     OW 6803   9.766   2.971   1.056
 1599SOL    HW1 6804   9.791   2.916   1.130
 1599SOL    HW2 6805   9.688   3.018   1.085
 1600SOL     OW 6806   3.563   3.321   2.751
 1600SOL    HW1 6807   3.589   3.257   2.817
 1600SOL    HW2 6808   3.581   3.406   2.791
 1601SOL     OW 6809   3.177   4.764   8.963
 1601SOL    HW1 6810   3.192   4.727   8.876
 1601SOL    HW2 6811   3.259   4.809   8.984
 1602SOL     OW 6812   9.812   5.365   6.431
 1602SOL    HW1 6813   9.868   5.414   6.491
 1602SOL    HW2 6814   9.724   5.396   6.450
 1603SOL     OW 6815   3.568   4.959   5.882
 1603SOL    HW1 6816   3.493   4.947   5.940
 1603SOL    HW2 6817   3.610   4.873   5.879
 1604SOL     OW 6818   6.315  10.854   0.479
 1604SOL    HW1 6819   6.310  10.949   0.493
 1604SOL    HW2 6820   6.264  10.840   0.399
 1605SOL     OW 6821   8.608   3.565   4.092
 1605SOL    HW1 6822   8.548   3.637   4.112
 1605SOL    HW2 6823   8.656   3.550   4.173
 1606SOL     OW 6824   2.345   0.337   8.652
 1606SOL    HW1 6825   2.377   0.294   8.572
 1606SOL    HW2 6826   2.398   0.300   8.722
 1607SOL     OW 6827   8.755   5.159   2.406
 1607SOL    HW1 6828   8.746   5.240   2.455
 1607SOL    HW2 6829   8.821   5.109   2.454
 1608SOL     OW 6830   3.599   8.886   2.498
 1608SOL    HW1 6831   3.598   8.850   2.587
 1608SOL    HW2 6832   3.687   8.865   2.465
 1609SOL     OW 6833   6.240   9.896   4.825
 1609SOL    HW1 6834   6.171   9.956   4.798
 1609SOL    HW2 6835   6.228   9.819   4.769
 1610SOL     OW 6836   5.050   0.102   3.981
 1610SOL    HW1 6837   4.983   0.064   4.037
 1610SOL    HW2 6838   5.035   0.062   3.895
 1611SOL     OW 6839   4.629   9.539   3.317
 1611SOL    HW1 6840   4.675   9.554   3.234
 1611SOL    HW2 6841   4.638   9.621   3.365
 1612SOL     OW 6842   0.409   8.410   9.622
 1612SOL    HW1 6843   0.327   8.456   9.602
 1612SOL    HW2 6844   0.408   8.400   9.717
 1613SOL     OW 6845   1.866   3.103   7.814
 1613SOL    HW1 6846   1.819   3.186   7.807
 1613SOL    HW2 6847   1.807   3.038   7.776
 1614SOL     OW 6848   4.791   1.832   5.534
 1614SOL    HW1 6849   4.833   1.751   5.564
 1614SOL    HW2 6850   4.698   1.812   5.535
 1615SOL     OW 6851   9.381   4.247   0.357
 1615SOL    HW1 6852   9.374   4.227   0.263
 1615SOL    HW2 6853   9.467   4.289   0.366
 1616SOL     OW 6854   5.861   6.040   7.868
 1616SOL    HW1 6855   5.867   6.134   7.883
 1616SOL    HW2 6856   5.924   6.002   7.929
 1617SOL     OW 6857   5.053  11.000   9.029
 1617SOL    HW1 6858   4.967  11.042   9.034
 1617SOL    HW2 6859   5.048  10.945   8.950
 1618SOL     OW 6860   4.652   4.572  10.266
 1618SOL    HW1 6861   4.621   4.487  10.234
 1618SOL    HW2 6862   4.695   4.552  10.349
 1619SOL     OW 6863   3.087  11.050   8.945
 1619SOL    HW1 6864   3.052  11.135   8.919
 1619SOL    HW2 6865   3.127  11.065   9.030
 1620SOL     OW 6866   9.146   1.667   4.427
 1620SOL    HW1 6867   9.117   1.590   4.377
 1620SOL    HW2 6868   9.081   1.677   4.496
 1621SOL     OW 6869   3.592   5.705   8.728
 1621SOL    HW1 6870   3.563   5.706   8.819
 1621SOL    HW2 6871   3.578   5.794   8.697
 1622SOL     OW 6872   1.312   9.225   3.695
 1622SOL    HW1 6873   1.373   9.294   3.721
 1622SOL    HW2 6874   1.268   9.260   3.617
 1623SOL     OW 6875   2.864   4.244   3.083
 1623SOL    HW1 6876   2.875   4.180   3.154
 1623SOL    HW2 6877   2.832   4.192   3.009
 1624SOL     OW 6878   0.920   1.350   0.675
 1624SOL    HW1 6879   0.908   1.288   0.603
 1624SOL    HW2 6880   1.010   1.381   0.665
 1625SOL     OW 6881   4.215   3.531   1.923
 1625SOL    HW1 6882   4.161   3.517   1.845
 1625SOL    HW2 6883   4.303   3.506   1.895
 1626SOL     OW 6884   0.116   7.016   0.368
 1626SOL    HW1 6885   0.173   6.962   0.423
 1626SOL    HW2 6886   0.156   7.013   0.281
 1627SOL     OW 6887   4.143   5.471  10.621
 1627SOL    HW1 6888   4.218   5.479  10.679
 1627SOL    HW2 6889   4.142   5.552  10.571
 1628SOL     OW 6890   7.427   6.028  10.160
 1628SOL    HW1 6891   7.349   5.990  10.119
 1628SOL    HW2 6892   7.394   6.071  10.239
 1629SOL     OW 6893   1.130   0.674   9.453
 1629SOL    HW1 6894   1.189   0.723   9.510
 1629SOL    HW2 6895   1.183   0.600   9.421
 1630SOL     OW 6896   1.745  10.974   0.638
 1630SOL    HW1 6897   1.830  10.933   0.620
 1630SOL    HW2 6898   1.691  10.951   0.562
 1631SOL     OW 6899   7.792   0.376   9.418
 1631SOL    HW1 6900   7.827   0.460   9.446
 1631SOL    HW2 6901   7.713   0.364   9.470
 1632SOL     OW 6902   9.621   5.288   2.320
 1632SOL    HW1 6903   9.626   5.274   2.225
 1632SOL    HW2 6904   9.552   5.353   2.331
 1633SOL     OW 6905   2.354   3.740   3.770
 1633SOL    HW1 6906   2.419   3.687   3.723
 1633SOL    HW2 6907   2.351   3.701   3.857
 1634SOL     OW 6908   1.904   1.781   0.899
 1634SOL    HW1 6909   1.843   1.828   0.955
 1634SOL    HW2 6910   1.985   1.833   0.901
 1635SOL     OW 6911   1.813   0.678   0.555
 1635SOL    HW1 6912   1.759   0.658   0.478
 1635SOL    HW2 6913   1.896   0.708   0.518
 1636SOL     OW 6914   8.575   2.662   3.965
 1636SOL    HW1 6915   8.527   2.580   3.952
 1636SOL    HW2 6916   8.571   2.677   4.059
 1637SOL     OW 6917   0.917   3.610   2.188
 1637SOL    HW1 6918   0.966   3.529   2.174
 1637SOL    HW2 6919   0.850   3.587   2.251
 1638SOL     OW 6920   4.155   0.512   9.510
 1638SOL    HW1 6921   4.185   0.535   9.598
 1638SOL    HW2 6922   4.158   0.594   9.461
 1639SOL     OW 6923   9.245   9.911   1.855
 1639SOL    HW1 6924   9.263   9.870   1.939
 1639SOL    HW2 6925   9.187   9.849   1.810
 1640SOL     OW 6926  10.236   1.538   4.252
 1640SOL    HW1 6927  10.313   1.505   4.298
 1640SOL    HW2 6928  10.227   1.628   4.281
 1641SOL     OW 6929  10.686   4.823   5.444
 1641SOL    HW1 6930  10.747   4.757   5.477
 1641SOL    HW2 6931  10.609   4.814   5.500
 1642SOL     OW 6932   0.845   4.164   4.386
 1642SOL    HW1 6933   0.768   4.112   4.410
 1642SOL    HW2 6934   0.811   4.251   4.366
 1643SOL     OW 6935   2.899   3.010   7.540
 1643SOL    HW1 6936   2.843   3.085   7.522
 1643SOL    HW2 6937   2.843   2.934   7.524
 1644SOL     OW 6938   4.991   8.098   8.562
 1644SOL    HW1 6939   4.955   8.124   8.646
 1644SOL    HW2 6940   4.976   8.173   8.504
 1645SOL     OW 6941  10.291   1.966   5.920
 1645SOL    HW1 6942  10.220   1.987   5.859
 1645SOL    HW2 6943  10.358   1.926   5.864
 1646SOL     OW 6944   4.417  10.646   3.384
 1646SOL    HW1 6945   4.460  10.643   3.298
 1646SOL    HW2 6946   4.343  10.705   3.372
 1647SOL     OW 6947   3.656   4.086   5.848
 1647SOL    HW1 6948   3.744   4.089   5.886
 1647SOL    HW2 6949   3.612   4.163   5.883
 1648SOL     OW 6950   3.043   0.877   1.172
 1648SOL    HW1 6951   2.955   0.854   1.200
 1648SOL    HW2 6952   3.060   0.962   1.212
 1649SOL     OW 6953   6.781   1.807   4.228
 1649SOL    HW1 6954   6.728   1.742   4.274
 1649SOL    HW2 6955   6.843   1.755   4.176
 1650SOL     OW 6956   0.863   1.946   3.560
 1650SOL    HW1 6957   0.782   1.997   3.556
 1650SOL    HW2 6958   0.902   1.955   3.473
 1651SOL     OW 6959  10.140   5.692   5.204
 1651SOL    HW1 6960  10.077   5.620   5.195
 1651SOL    HW2 6961  10.179   5.700   5.116
 1652SOL     OW 6962   1.529   5.251   2.154
 1652SOL    HW1 6963   1.539   5.171   2.102
 1652SOL    HW2 6964   1.553   5.225   2.243
 1653SOL     OW 6965   1.821   3.337   3.490
 1653SOL    HW1 6966   1.816   3.309   3.398
 1653SOL    HW2 6967   1.887   3.406   3.490
 1654SOL     OW 6968   3.044   8.161  10.676
 1654SOL    HW1 6969   3.119   8.137  10.621
 1654SOL    HW2 6970   2.975   8.100  10.650
 1655SOL     OW 6971   3.466   4.549   6.375
 1655SOL    HW1 6972   3.523   4.523   6.448
 1655SOL    HW2 6973   3.526   4.559   6.301
 1656SOL     OW 6974   1.241   5.974   2.186
 1656SOL    HW1 6975   1.303   5.942   2.251
 1656SOL    HW2 6976   1.171   5.909   2.186
 1657SOL     OW 6977   8.631  10.218   9.806
 1657SOL    HW1 6978   8.692  10.195   9.876
 1657SOL    HW2 6979   8.655  10.159   9.734
 1658SOL     OW 6980   4.225   3.941   6.144
 1658SOL    HW1 6981   4.289   3.896   6.088
 1658SOL    HW2 6982   4.274   3.965   6.222
 1659SOL     OW 6983   2.535   4.772   7.174
 1659SOL    HW1 6984   2.481   4.790   7.097
 1659SOL    HW2 6985   2.543   4.856   7.218
 1660SOL     OW 6986   4.137   9.453   2.903
 1660SOL    HW1 6987   4.214   9.490   2.860
 1660SOL    HW2 6988   4.105   9.523   2.959
 1661SOL     OW 6989  10.263   0.050   0.230
 1661SOL    HW1 6990  10.259  -0.037   0.188
 1661SOL    HW2 6991  10.263   0.111   0.157
 1662SOL     OW 6992  10.273  10.454   0.796
 1662SOL    HW1 6993  10.331  10.452   0.720
 1662SOL    HW2 6994  10.227  10.538   0.789
 1663SOL     OW 6995   9.278   3.902   2.571
 1663SOL    HW1 6996   9.193   3.859   2.580
 1663SOL    HW2 6997   9.311   3.871   2.486
 1664SOL     OW 6998   0.038   5.048   5.723
 1664SOL    HW1 6999   0.017   5.101   5.646
 1664SOL    HW2 7000  -0.005   4.964   5.705
 1665SOL     OW 7001   2.517   2.517   6.883
 1665SOL    HW1 7002   2.494   2.544   6.972
 1665SOL    HW2 7003   2.574   2.441   6.895
 1666SOL     OW 7004   1.128   0.998   5.255
 1666SOL    HW1 7005   1.034   0.997   5.236
 1666SOL    HW2 7006   1.133   0.993   5.350
 1667SOL     OW 7007   7.697   3.178   3.826
 1667SOL    HW1 7008   7.608   3.155   3.852
 1667SOL    HW2 7009   7.753   3.126   3.884
 1668SOL     OW 7010   0.723   6.400   1.910
 1668SOL    HW1 7011   0.724   6.368   1.819
 1668SOL    HW2 7012   0.794   6.464   1.913
 1669SOL     OW 7013  10.519   1.800   4.118
 1669SOL    HW1 7014  10.612   1.821   4.110
 1669SOL    HW2 7015  10.506   1.781   4.211
 1670SOL     OW 7016   6.766   6.304   9.454
 1670SOL    HW1 7017   6.844   6.289   9.400
 1670SOL    HW2 7018   6.699   6.248   9.414
 1671SOL     OW 7019   7.155   9.352   2.560
 1671SOL    HW1 7020   7.211   9.408   2.613
 1671SOL    HW2 7021   7.182   9.263   2.582
 1672SOL     OW 7022   8.596   0.443   1.588
 1672SOL    HW1 7023   8.675   0.477   1.545
 1672SOL    HW2 7024   8.615   0.450   1.681
 1673SOL     OW 7025   1.996   8.118   3.358
 1673SOL    HW1 7026   1.901   8.122   3.365
 1673SOL    HW2 7027   2.023   8.061   3.430
 1674SOL     OW 7028   4.305   4.235   5.469
 1674SOL    HW1 7029   4.401   4.232   5.466
 1674SOL    HW2 7030   4.284   4.327   5.484
 1675SOL     OW 7031   7.583   9.639   8.050
 1675SOL    HW1 7032   7.504   9.608   8.094
 1675SOL    HW2 7033   7.623   9.700   8.111
 1676SOL     OW 7034   9.550   2.673   5.402
 1676SOL    HW1 7035   9.459   2.644   5.392
 1676SOL    HW2 7036   9.600   2.592   5.413
 1677SOL     OW 7037  10.050   2.909   4.939
 1677SOL    HW1 7038  10.016   2.846   4.875
 1677SOL    HW2 7039  10.138   2.877   4.959
 1678SOL     OW 7040   3.914   7.126   4.278
 1678SOL    HW1 7041   3.981   7.160   4.336
 1678SOL    HW2 7042   3.854   7.078   4.335
 1679SOL     OW 7043   2.693  10.819   1.790
 1679SOL    HW1 7044   2.764  10.783   1.737
 1679SOL    HW2 7045   2.705  10.914   1.783
 1680SOL     OW 7046   4.187   3.325   4.337
 1680SOL    HW1 7047   4.202   3.325   4.242
 1680SOL    HW2 7048   4.188   3.417   4.362
 1681SOL     OW 7049   1.831  10.681   9.245
 1681SOL    HW1 7050   1.774  10.752   9.215
 1681SOL    HW2 7051   1.855  10.635   9.165
 1682SOL     OW 7052   9.975   3.523   2.409
 1682SOL    HW1 7053   9.937   3.599   2.365
 1682SOL    HW2 7054   9.902   3.484   2.457
 1683SOL     OW 7055   6.312   2.389   3.291
 1683SOL    HW1 7056   6.381   2.362   3.352
 1683SOL    HW2 7057   6.262   2.455   3.338
 1684SOL     OW 7058   0.454   1.568   4.436
 1684SOL    HW1 7059   0.368   1.573   4.477
 1684SOL    HW2 7060   0.483   1.478   4.453
 1685SOL     OW 7061   2.386   7.987   1.760
 1685SOL    HW1 7062   2.414   8.070   1.799
 1685SOL    HW2 7063   2.432   7.920   1.811
 1686SOL     OW 7064   0.757   5.192   6.180
 1686SOL    HW1 7065   0.833   5.219   6.127
 1686SOL    HW2 7066   0.681   5.213   6.125
 1687SOL     OW 7067   8.884   1.484   0.872
 1687SOL    HW1 7068   8.896   1.463   0.779
 1687SOL    HW2 7069   8.858   1.401   0.911
 1688SOL     OW 7070   9.817   5.336   1.580
 1688SOL    HW1 7071   9.876   5.276   1.626
 1688SOL    HW2 7072   9.861   5.353   1.496
 1689SOL     OW 7073   6.535   1.998   9.381
 1689SOL    HW1 7074   6.575   2.016   9.466
 1689SOL    HW2 7075   6.563   2.070   9.325
 1690SOL     OW 7076   3.399   4.410   5.509
 1690SOL    HW1 7077   3.381   4.316   5.501
 1690SOL    HW2 7078   3.407   4.440   5.418
 1691SOL     OW 7079   9.880  11.039  10.980
 1691SOL    HW1 7080   9.886  11.082  10.894
 1691SOL    HW2 7081   9.915  10.951  10.965
 1692SOL     OW 7082   6.549   4.437   8.447
 1692SOL    HW1 7083   6.585   4.348   8.452
 1692SOL    HW2 7084   6.599   4.479   8.377
 1693SOL     OW 7085   6.895   6.766   4.917
 1693SOL    HW1 7086   6.806   6.744   4.888
 1693SOL    HW2 7087   6.926   6.687   4.961
 1694SOL     OW 7088  10.820   5.331   6.520
 1694SOL    HW1 7089  10.819   5.236   6.506
 1694SOL    HW2 7090  10.750   5.347   6.583
 1695SOL     OW 7091   4.034   2.221   9.433
 1695SOL    HW1 7092   3.979   2.190   9.361
 1695SOL    HW2 7093   4.121   2.228   9.394
 1696SOL     OW 7094   9.271  11.052   3.791
 1696SOL    HW1 7095   9.315  11.032   3.708
 1696SOL    HW2 7096   9.218  11.129   3.772
 1697SOL     OW 7097   8.614   4.386   6.469
 1697SOL    HW1 7098   8.697   4.361   6.510
 1697SOL    HW2 7099   8.547   4.357   6.531
 1698SOL     OW 7100  10.581   9.996   5.668
 1698SOL    HW1 7101  10.576  10.041   5.583
 1698SOL    HW2 7102  10.512   9.930   5.664
 1699SOL     OW 7103   9.635   5.204   6.866
 1699SOL    HW1 7104   9.591   5.288   6.859
 1699SOL    HW2 7105   9.728   5.223   6.854
 1700SOL     OW 7106  10.705   4.988   2.454
 1700SOL    HW1 7107  10.692   4.912   2.397
 1700SOL    HW2 7108  10.656   5.058   2.411
 1701SOL     OW 7109   4.594   8.055   6.053
 1701SOL    HW1 7110   4.601   8.034   6.146
 1701SOL    HW2 7111   4.572   7.972   6.011
 1702SOL     OW 7112   1.871   2.869   7.438
 1702SOL    HW1 7113   1.808   2.940   7.452
 1702SOL    HW2 7114   1.843   2.828   7.355
 1703SOL     OW 7115  11.089   7.900  10.458
 1703SOL    HW1 7116  11.032   7.879  10.383
 1703SOL    HW2 7117  11.166   7.844  10.445
 1704SOL     OW 7118   2.588   0.878   6.977
 1704SOL    HW1 7119   2.595   0.798   6.924
 1704SOL    HW2 7120   2.563   0.946   6.914
 1705SOL     OW 7121   0.341   2.845   5.385
 1705SOL    HW1 7122   0.339   2.810   5.474
 1705SOL    HW2 7123   0.273   2.912   5.384
 1706SOL     OW 7124   8.647   0.579  10.582
 1706SOL    HW1 7125   8.678   0.634  10.653
 1706SOL    HW2 7126   8.655   0.489  10.615
 1707SOL     OW 7127  10.687   4.282   4.033
 1707SOL    HW1 7128  10.631   4.211   4.066
 1707SOL    HW2 7129  10.628   4.339   3.984
 1708SOL     OW 7130   1.285   1.457   1.792
 1708SOL    HW1 7131   1.337   1.390   1.747
 1708SOL    HW2 7132   1.244   1.410   1.864
 1709SOL     OW 7133   7.883   0.047   3.702
 1709SOL    HW1 7134   7.837   0.019   3.781
 1709SOL    HW2 7135   7.911  -0.035   3.661
 1710SOL     OW 7136   4.706   2.607   7.349
 1710SOL    HW1 7137   4.730   2.665   7.421
 1710SOL    HW2 7138   4.673   2.665   7.280
 1711SOL     OW 7139   9.582   5.463   6.519
 1711SOL    HW1 7140   9.526   5.483   6.444
 1711SOL    HW2 7141   9.637   5.540   6.530
 1712SOL     OW 7142   1.923  10.568   5.916
 1712SOL    HW1 7143   2.000  10.624   5.929
 1712SOL    HW2 7144   1.849  10.628   5.923
 1713SOL     OW 7145   1.929   4.080   0.049
 1713SOL    HW1 7146   1.992   4.094  -0.021
 1713SOL    HW2 7147   1.867   4.016   0.014
 1714SOL     OW 7148   9.190   4.017   3.264
 1714SOL    HW1 7149   9.278   3.994   3.233
 1714SOL    HW2 7150   9.149   3.933   3.285
 1715SOL     OW 7151   2.466   4.415   3.733
 1715SOL    HW1 7152   2.514   4.425   3.650
 1715SOL    HW2 7153   2.388   4.365   3.709
 1716SOL     OW 7154   9.501   1.821   3.900
 1716SOL    HW1 7155   9.431   1.797   3.961
 1716SOL    HW2 7156   9.478   1.909   3.870
 1717SOL     OW 7157   1.918  10.821   5.500
 1717SOL    HW1 7158   1.980  10.761   5.459
 1717SOL    HW2 7159   1.969  10.901   5.516
 1718SOL     OW 7160  10.337   0.603   8.985
 1718SOL    HW1 7161  10.423   0.564   9.001
 1718SOL    HW2 7162  10.284   0.576   9.060
 1719SOL     OW 7163   1.958   6.178   2.314
 1719SOL    HW1 7164   1.950   6.272   2.330
 1719SOL    HW2 7165   1.958   6.170   2.218
 1720SOL     OW 7166   4.288   4.302   2.668
 1720SOL    HW1 7167   4.286   4.304   2.763
 1720SOL    HW2 7168   4.210   4.349   2.641
 1721SOL     OW 7169   5.095   4.086   3.193
 1721SOL    HW1 7170   5.059   4.145   3.127
 1721SOL    HW2 7171   5.061   4.000   3.168
 1722SOL     OW 7172   6.044  10.411   3.529
 1722SOL    HW1 7173   5.960  10.456   3.524
 1722SOL    HW2 7174   6.066  10.410   3.622
 1723SOL     OW 7175   4.468  10.689   7.200
 1723SOL    HW1 7176   4.529  10.657   7.266
 1723SOL    HW2 7177   4.445  10.612   7.148
 1724SOL     OW 7178  10.810   6.408   6.492
 1724SOL    HW1 7179  10.803   6.399   6.397
 1724SOL    HW2 7180  10.721   6.395   6.524
 1725SOL     OW 7181   6.029   2.337   8.669
 1725SOL    HW1 7182   6.040   2.403   8.601
 1725SOL    HW2 7183   5.966   2.375   8.729
 1726SOL     OW 7184   3.775   7.913   3.880
 1726SOL    HW1 7185   3.811   7.829   3.850
 1726SOL    HW2 7186   3.786   7.912   3.975
 1727SOL     OW 7187  10.184   6.369   4.113
 1727SOL    HW1 7188  10.238   6.446   4.130
 1727SOL    HW2 7189  10.095   6.396   4.135
 1728SOL     OW 7190   4.691   8.851   5.044
 1728SOL    HW1 7191   4.640   8.916   5.092
 1728SOL    HW2 7192   4.707   8.891   4.959
 1729SOL     OW 7193   9.474   1.418   7.778
 1729SOL    HW1 7194   9.432   1.478   7.717
 1729SOL    HW2 7195   9.404   1.358   7.805
 1730SOL     OW 7196   8.021   4.292   2.937
 1730SOL    HW1 7197   7.928   4.268   2.937
 1730SOL    HW2 7198   8.037   4.327   3.024
 1731SOL     OW 7199   2.691   4.554   7.116
 1731SOL    HW1 7200   2.623   4.619   7.132
 1731SOL    HW2 7201   2.764   4.604   7.080
 1732SOL     OW 7202   7.896   6.382   9.044
 1732SOL    HW1 7203   7.910   6.475   9.059
 1732SOL    HW2 7204   7.948   6.338   9.111
 1733SOL     OW 7205   5.749   0.131   6.477
 1733SOL    HW1 7206   5.663   0.097   6.454
 1733SOL    HW2 7207   5.809   0.058   6.459
 1734SOL     OW 7208   4.858   2.979   0.218
 1734SOL    HW1 7209   4.931   3.008   0.164
 1734SOL    HW2 7210   4.789   3.043   0.202
 1735SOL     OW 7211   2.429   4.842   6.910
 1735SOL    HW1 7212   2.487   4.916   6.892
 1735SOL    HW2 7213   2.341   4.880   6.911
 1736SOL     OW 7214   6.338   8.886   2.497
 1736SOL    HW1 7215   6.347   8.900   2.402
 1736SOL    HW2 7216   6.301   8.798   2.505
 1737SOL     OW 7217   8.715   2.450   4.873
 1737SOL    HW1 7218   8.718   2.371   4.927
 1737SOL    HW2 7219   8.697   2.520   4.935
 1738SOL     OW 7220   1.344   0.669   4.796
 1738SOL    HW1 7221   1.364   0.579   4.769
 1738SOL    HW2 7222   1.281   0.659   4.867
 1739SOL     OW 7223   9.368   2.333   5.041
 1739SOL    HW1 7224   9.327   2.419   5.033
 1739SOL    HW2 7225   9.299   2.276   5.076
 1740SOL     OW 7226   1.178   8.443   1.230
 1740SOL    HW1 7227   1.221   8.501   1.167
 1740SOL    HW2 7228   1.138   8.502   1.293
 1741SOL     OW 7229   6.699   0.774   2.696
 1741SOL    HW1 7230   6.705   0.856   2.648
 1741SOL    HW2 7231   6.642   0.793   2.770
 1742SOL     OW 7232   5.738   8.545   1.848
 1742SOL    HW1 7233   5.723   8.471   1.908
 1742SOL    HW2 7234   5.753   8.503   1.763
 1743SOL     OW 7235   5.547   0.772   8.497
 1743SOL    HW1 7236   5.536   0.859   8.459
 1743SOL    HW2 7237   5.486   0.769   8.570
 1744SOL     OW 7238   4.538   4.858   4.008
 1744SOL    HW1 7239   4.602   4.912   4.054
 1744SOL    HW2 7240   4.506   4.913   3.937
 1745SOL     OW 7241   3.293   8.767   2.239
 1745SOL    HW1 7242   3.335   8.683   2.219
 1745SOL    HW2 7243   3.270   8.803   2.153
 1746SOL     OW 7244   1.535   4.327   4.669
 1746SOL    HW1 7245   1.457   4.380   4.686
 1746SOL    HW2 7246   1.608   4.381   4.699
 1747SOL     OW 7247   9.057   8.779   9.879
 1747SOL    HW1 7248   9.095   8.860   9.913
 1747SOL    HW2 7249   9.123   8.712   9.897
 1748SOL     OW 7250   3.252   2.846   5.284
 1748SOL    HW1 7251   3.206   2.917   5.239
 1748SOL    HW2 7252   3.182   2.790   5.318
 1749SOL     OW 7253   4.935   4.125   1.342
 1749SOL    HW1 7254   4.861   4.173   1.378
 1749SOL    HW2 7255   4.916   4.118   1.248
 1750SOL     OW 7256   7.702   8.784   6.979
 1750SOL    HW1 7257   7.734   8.748   7.062
 1750SOL    HW2 7258   7.685   8.707   6.924
 1751SOL     OW 7259   6.155   1.547   2.913
 1751SOL    HW1 7260   6.072   1.585   2.941
 1751SOL    HW2 7261   6.164   1.467   2.964
 1752SOL     OW 7262   9.974  10.729   7.222
 1752SOL    HW1 7263   9.950  10.820   7.207
 1752SOL    HW2 7264  10.016  10.729   7.308
 1753SOL     OW 7265   4.473   0.512   9.978
 1753SOL    HW1 7266   4.516   0.428   9.958
 1753SOL    HW2 7267   4.456   0.508  10.072
 1754SOL     OW 7268   3.838   1.902  10.482
 1754SOL    HW1 7269   3.859   1.809  10.487
 1754SOL    HW2 7270   3.921   1.944  10.461
 1755SOL     OW 7271   4.784  10.350   3.632
 1755SOL    HW1 7272   4.807  10.415   3.698
 1755SOL    HW2 7273   4.779  10.399   3.550
 1756SOL     OW 7274   9.107   4.785   9.227
 1756SOL    HW1 7275   9.197   4.802   9.200
 1756SOL    HW2 7276   9.062   4.868   9.215
 1757SOL     OW 7277   1.817   2.067  11.013
 1757SOL    HW1 7278   1.834   2.144  10.959
 1757SOL    HW2 7279   1.802   2.101  11.101
 1758SOL     OW 7280  10.090   8.992  10.939
 1758SOL    HW1 7281  10.144   8.940  10.878
 1758SOL    HW2 7282  10.070   9.072  10.891
 1759SOL     OW 7283   9.701   1.127   1.771
 1759SOL    HW1 7284   9.765   1.182   1.817
 1759SOL    HW2 7285   9.752   1.083   1.703
 1760SOL     OW 7286   1.530   5.868   5.972
 1760SOL    HW1 7287   1.437   5.885   5.985
 1760SOL    HW2 7288   1.554   5.807   6.042
 1761SOL     OW 7289   5.767   4.485   1.264
 1761SOL    HW1 7290   5.757   4.395   1.295
 1761SOL    HW2 7291   5.684   4.527   1.284
 1762SOL     OW 7292   6.130   5.022   8.899
 1762SOL    HW1 7293   6.082   5.096   8.935
 1762SOL    HW2 7294   6.141   4.962   8.972
 1763SOL     OW 7295   5.163   3.859   8.254
 1763SOL    HW1 7296   5.197   3.945   8.277
 1763SOL    HW2 7297   5.111   3.874   8.175
 1764SOL     OW 7298   9.779   9.217   3.299
 1764SOL    HW1 7299   9.694   9.173   3.305
 1764SOL    HW2 7300   9.823   9.195   3.381
 1765SOL     OW 7301  10.927   0.819   9.700
 1765SOL    HW1 7302  10.920   0.900   9.749
 1765SOL    HW2 7303  10.846   0.772   9.720
 1766SOL     OW 7304   9.246   3.344   0.943
 1766SOL    HW1 7305   9.184   3.338   0.870
 1766SOL    HW2 7306   9.191   3.339   1.021
 1767SOL     OW 7307   4.997   3.008   9.734
 1767SOL    HW1 7308   5.023   3.062   9.808
 1767SOL    HW2 7309   5.007   3.065   9.658
 1768SOL     OW 7310  10.748   1.270  10.873
 1768SOL    HW1 7311  10.716   1.225  10.795
 1768SOL    HW2 7312  10.772   1.199  10.933
 1769SOL     OW 7313   5.224   4.315   2.222
 1769SOL    HW1 7314   5.243   4.226   2.190
 1769SOL    HW2 7315   5.269   4.372   2.160
 1770SOL     OW 7316   6.013   9.357  11.004
 1770SOL    HW1 7317   5.951   9.335  10.934
 1770SOL    HW2 7318   6.045   9.272  11.034
 1771SOL     OW 7319   4.622   9.856   7.637
 1771SOL    HW1 7320   4.689   9.824   7.697
 1771SOL    HW2 7321   4.670   9.907   7.572
 1772SOL     OW 7322   3.684   9.253   6.064
 1772SOL    HW1 7323   3.699   9.347   6.072
 1772SOL    HW2 7324   3.766   9.213   6.094
 1773SOL     OW 7325   9.064   0.164   8.603
 1773SOL    HW1 7326   9.023   0.240   8.561
 1773SOL    HW2 7327   9.003   0.138   8.672
 1774SOL     OW 7328   6.884   0.402   6.863
 1774SOL    HW1 7329   6.860   0.309   6.864
 1774SOL    HW2 7330   6.956   0.409   6.926
 1775SOL     OW 7331   3.867   0.493   1.040
 1775SOL    HW1 7332   3.906   0.452   0.962
 1775SOL    HW2 7333   3.841   0.580   1.010
 1776SOL     OW 7334   7.196   4.994  10.828
 1776SOL    HW1 7335   7.282   5.013  10.791
 1776SOL    HW2 7336   7.189   5.051  10.904
 1777SOL     OW 7337   0.153   2.140   3.695
 1777SOL    HW1 7338   0.162   2.167   3.603
 1777SOL    HW2 7339   0.213   2.196   3.743
 1778SOL     OW 7340   0.800   6.178   5.885
 1778SOL    HW1 7341   0.738   6.150   5.952
 1778SOL    HW2 7342   0.826   6.266   5.911
 1779SOL     OW 7343   6.107   1.656   4.743
 1779SOL    HW1 7344   6.139   1.645   4.653
 1779SOL    HW2 7345   6.065   1.741   4.743
 1780SOL     OW 7346   7.930   1.177  10.565
 1780SOL    HW1 7347   7.972   1.096  10.535
 1780SOL    HW2 7348   7.978   1.246  10.520
 1781SOL     OW 7349   0.822   3.393   1.657
 1781SOL    HW1 7350   0.854   3.336   1.727
 1781SOL    HW2 7351   0.876   3.472   1.663
 1782SOL     OW 7352   6.796   4.672   9.815
 1782SOL    HW1 7353   6.758   4.602   9.868
 1782SOL    HW2 7354   6.868   4.706   9.868
 1783SOL     OW 7355   2.700   7.781   4.863
 1783SOL    HW1 7356   2.750   7.827   4.796
 1783SOL    HW2 7357   2.623   7.836   4.878
 1784SOL     OW 7358  10.422  10.921   4.842
 1784SOL    HW1 7359  10.357  10.903   4.774
 1784SOL    HW2 7360  10.413  10.848   4.903
 1785SOL     OW 7361  10.007  10.957   3.664
 1785SOL    HW1 7362  10.088  10.907   3.658
 1785SOL    HW2 7363  10.005  11.010   3.584
 1786SOL     OW 7364   3.076   3.701   7.807
 1786SOL    HW1 7365   3.073   3.792   7.836
 1786SOL    HW2 7366   3.141   3.660   7.864
 1787SOL     OW 7367   7.847   4.338   6.829
 1787SOL    HW1 7368   7.799   4.409   6.871
 1787SOL    HW2 7369   7.882   4.376   6.748
 1788SOL     OW 7370   0.575   3.133   8.672
 1788SOL    HW1 7371   0.487   3.126   8.708
 1788SOL    HW2 7372   0.562   3.138   8.577
 1789SOL     OW 7373   5.829   0.309   8.071
 1789SOL    HW1 7374   5.922   0.300   8.050
 1789SOL    HW2 7375   5.793   0.222   8.055
 1790SOL     OW 7376   9.243   4.427   8.258
 1790SOL    HW1 7377   9.335   4.422   8.283
 1790SOL    HW2 7378   9.237   4.373   8.179
 1791SOL     OW 7379   0.523   2.657   5.273
 1791SOL    HW1 7380   0.501   2.720   5.342
 1791SOL    HW2 7381   0.618   2.648   5.278
 1792SOL     OW 7382   1.697   0.308   3.718
 1792SOL    HW1 7383   1.764   0.372   3.693
 1792SOL    HW2 7384   1.671   0.267   3.635
 1793SOL     OW 7385   6.462   3.252  10.055
 1793SOL    HW1 7386   6.461   3.251  10.150
 1793SOL    HW2 7387   6.389   3.309  10.030
 1794SOL     OW 7388   3.628   1.693   6.946
 1794SOL    HW1 7389   3.660   1.681   7.035
 1794SOL    HW2 7390   3.686   1.638   6.893
 1795SOL     OW 7391   1.373  10.379   4.118
 1795SOL    HW1 7392   1.467  10.386   4.101
 1795SOL    HW2 7393   1.353  10.452   4.175
 1796SOL     OW 7394   6.790   1.120   7.916
 1796SOL    HW1 7395   6.811   1.066   7.992
 1796SOL    HW2 7396   6.697   1.105   7.901
 1797SOL     OW 7397   9.598   3.795   2.955
 1797SOL    HW1 7398   9.649   3.830   2.882
 1797SOL    HW2 7399   9.507   3.813   2.931
 1798SOL     OW 7400  10.646   3.697   2.841
 1798SOL    HW1 7401  10.631   3.789   2.859
 1798SOL    HW2 7402  10.651   3.691   2.745
 1799SOL     OW 7403   5.001   4.126   8.339
 1799SOL    HW1 7404   4.944   4.201   8.326
 1799SOL    HW2 7405   4.948   4.051   8.313
 1800SOL     OW 7406   2.887   5.482   6.890
 1800SOL    HW1 7407   2.937   5.469   6.970
 1800SOL    HW2 7408   2.952   5.514   6.827
 1801SOL     OW 7409   1.615   2.704   4.644
 1801SOL    HW1 7410   1.635   2.682   4.735
 1801SOL    HW2 7411   1.700   2.701   4.599
 1802SOL     OW 7412   4.885  10.242   0.662
 1802SOL    HW1 7413   4.977  10.267   0.668
 1802SOL    HW2 7414   4.886  10.154   0.624
 1803SOL     OW 7415   3.331   0.106   4.826
 1803SOL    HW1 7416   3.386   0.027   4.822
 1803SOL    HW2 7417   3.262   0.090   4.761
 1804SOL     OW 7418   9.267   2.405   3.308
 1804SOL    HW1 7419   9.314   2.423   3.226
 1804SOL    HW2 7420   9.301   2.469   3.370
 1805SOL     OW 7421   0.264   4.651   2.039
 1805SOL    HW1 7422   0.356   4.633   2.055
 1805SOL    HW2 7423   0.260   4.745   2.025
 1806SOL     OW 7424   9.399   6.714   4.749
 1806SOL    HW1 7425   9.405   6.796   4.701
 1806SOL    HW2 7426   9.344   6.658   4.694
 1807SOL     OW 7427   0.857   1.521   1.226
 1807SOL    HW1 7428   0.924   1.458   1.252
 1807SOL    HW2 7429   0.792   1.517   1.296
 1808SOL     OW 7430   3.127  10.738   3.078
 1808SOL    HW1 7431   3.128  10.684   3.157
 1808SOL    HW2 7432   3.188  10.809   3.097
 1809SOL     OW 7433   9.348   1.702   4.118
 1809SOL    HW1 7434   9.261   1.664   4.105
 1809SOL    HW2 7435   9.400   1.630   4.154
 1810SOL     OW 7436   2.012   3.311   0.244
 1810SOL    HW1 7437   1.943   3.245   0.236
 1810SOL    HW2 7438   1.967   3.395   0.233
 1811SOL     OW 7439   9.998   2.571   4.564
 1811SOL    HW1 7440   9.971   2.634   4.497
 1811SOL    HW2 7441   9.951   2.490   4.541
 1812SOL     OW 7442   7.066   8.293   3.596
 1812SOL    HW1 7443   7.133   8.333   3.651
 1812SOL    HW2 7444   7.047   8.359   3.529
 1813SOL     OW 7445   9.337   6.488   8.942
 1813SOL    HW1 7446   9.263   6.536   8.979
 1813SOL    HW2 7447   9.344   6.520   8.852
 1814SOL     OW 7448   1.791   6.192   6.492
 1814SOL    HW1 7449   1.845   6.143   6.554
 1814SOL    HW2 7450   1.836   6.181   6.408
 1815SOL     OW 7451   3.100   0.257   4.595
 1815SOL    HW1 7452   3.173   0.295   4.546
 1815SOL    HW2 7453   3.065   0.329   4.647
 1816SOL     OW 7454   4.422   9.217   4.317
 1816SOL    HW1 7455   4.407   9.260   4.400
 1816SOL    HW2 7456   4.366   9.139   4.320
 1817SOL     OW 7457   6.151   1.106   9.725
 1817SOL    HW1 7458   6.159   1.098   9.820
 1817SOL    HW2 7459   6.163   1.199   9.707
 1818SOL     OW 7460   2.111   8.563   1.375
 1818SOL    HW1 7461   2.122   8.473   1.344
 1818SOL    HW2 7462   2.017   8.580   1.367
 1819SOL     OW 7463   0.192   9.573   2.279
 1819SOL    HW1 7464   0.154   9.587   2.365
 1819SOL    HW2 7465   0.167   9.650   2.229
 1820SOL     OW 7466  10.485   1.202   5.977
 1820SOL    HW1 7467  10.404   1.181   5.930
 1820SOL    HW2 7468  10.474   1.293   6.004
 1821SOL     OW 7469   8.806   3.899   9.924
 1821SOL    HW1 7470   8.775   3.812   9.898
 1821SOL    HW2 7471   8.900   3.897   9.905
 1822SOL     OW 7472  10.333   5.858   3.127
 1822SOL    HW1 7473  10.324   5.763   3.140
 1822SOL    HW2 7474  10.420   5.878   3.162
 1823SOL     OW 7475   3.443   4.978  10.138
 1823SOL    HW1 7476   3.475   5.031  10.210
 1823SOL    HW2 7477   3.390   4.910  10.179
 1824SOL     OW 7478   2.655   2.283  10.826
 1824SOL    HW1 7479   2.573   2.321  10.858
 1824SOL    HW2 7480   2.652   2.191  10.854
 1825SOL     OW 7481   0.792   7.429   6.576
 1825SOL    HW1 7482   0.717   7.489   6.574
 1825SOL    HW2 7483   0.756   7.345   6.546
 1826SOL     OW 7484  10.109   3.351   4.838
 1826SOL    HW1 7485  10.038   3.294   4.808
 1826SOL    HW2 7486  10.076   3.390   4.919
 1827SOL     OW 7487   1.263   7.552   3.235
 1827SOL    HW1 7488   1.321   7.475   3.235
 1827SOL    HW2 7489   1.312   7.618   3.186
 1828SOL     OW 7490   0.156   5.736   6.368
 1828SOL    HW1 7491   0.153   5.652   6.414
 1828SOL    HW2 7492   0.248   5.761   6.369
 1829SOL     OW 7493   0.599   1.742   3.615
 1829SOL    HW1 7494   0.638   1.701   3.692
 1829SOL    HW2 7495   0.586   1.833   3.640
 1830SOL     OW 7496   0.151   9.355   1.877
 1830SOL    HW1 7497   0.129   9.308   1.958
 1830SOL    HW2 7498   0.144   9.447   1.899
 1831SOL     OW 7499   8.586   5.555   4.505
 1831SOL    HW1 7500   8.522   5.496   4.464
 1831SOL    HW2 7501   8.664   5.500   4.517
 1832SOL     OW 7502   1.430   5.234   2.666
 1832SOL    HW1 7503   1.450   5.275   2.750
 1832SOL    HW2 7504   1.445   5.140   2.681
 1833SOL     OW 7505   0.136   5.256   8.676
 1833SOL    HW1 7506   0.158   5.261   8.769
 1833SOL    HW2 7507   0.204   5.200   8.638
 1834SOL     OW 7508   0.352   4.975   4.017
 1834SOL    HW1 7509   0.430   4.922   4.000
 1834SOL    HW2 7510   0.379   5.064   3.998
 1835SOL     OW 7511   0.040   8.877   7.143
 1835SOL    HW1 7512   0.048   8.822   7.064
 1835SOL    HW2 7513   0.037   8.966   7.110
 1836SOL     OW 7514   3.779   7.778  10.732
 1836SOL    HW1 7515   3.697   7.765  10.779
 1836SOL    HW2 7516   3.776   7.714  10.661
 1837SOL     OW 7517   0.006   9.075   2.042
 1837SOL    HW1 7518  -0.073   9.066   2.095
 1837SOL    HW2 7519   0.073   9.105   2.103
 1838SOL     OW 7520   8.708   2.023  10.752
 1838SOL    HW1 7521   8.749   2.108  10.764
 1838SOL    HW2 7522   8.673   2.025  10.663
 1839SOL     OW 7523   7.693   7.349   4.495
 1839SOL    HW1 7524   7.609   7.345   4.541
 1839SOL    HW2 7525   7.696   7.268   4.443
 1840SOL     OW 7526  10.031   5.412   3.697
 1840SOL    HW1 7527  10.009   5.361   3.618
 1840SOL    HW2 7528  10.036   5.347   3.767
 1841SOL     OW 7529   2.593   0.025   3.619
 1841SOL    HW1 7530   2.544   0.017   3.701
 1841SOL    HW2 7531   2.679   0.059   3.645
 1842SOL     OW 7532   9.474   5.571   2.380
 1842SOL    HW1 7533   9.400   5.626   2.403
 1842SOL    HW2 7534   9.550   5.628   2.387
 1843SOL     OW 7535   2.391   3.005   0.952
 1843SOL    HW1 7536   2.360   3.054   0.875
 1843SOL    HW2 7537   2.311   2.980   0.998
 1844SOL     OW 7538   5.935   3.871   3.957
 1844SOL    HW1 7539   5.946   3.797   3.897
 1844SOL    HW2 7540   6.011   3.866   4.015
 1845SOL     OW 7541   9.940   0.658   3.270
 1845SOL    HW1 7542   9.908   0.744   3.243
 1845SOL    HW2 7543  10.016   0.676   3.325
 1846SOL     OW 7544   0.100   3.704   5.760
 1846SOL    HW1 7545   0.139   3.620   5.784
 1846SOL    HW2 7546   0.129   3.764   5.828
 1847SOL     OW 7547   3.500  10.294   5.610
 1847SOL    HW1 7548   3.510  10.376   5.658
 1847SOL    HW2 7549   3.428  10.310   5.549
 1848SOL     OW 7550   7.352   0.735   7.336
 1848SOL    HW1 7551   7.262   0.737   7.368
 1848SOL    HW2 7552   7.351   0.790   7.258
 1849SOL     OW 7553   3.583   6.563   6.292
 1849SOL    HW1 7554   3.604   6.484   6.241
 1849SOL    HW2 7555   3.637   6.632   6.253
 1850SOL     OW 7556   3.800   5.373   2.982
 1850SOL    HW1 7557   3.770   5.285   2.959
 1850SOL    HW2 7558   3.870   5.359   3.046
 1851SOL     OW 7559   5.872   2.183   5.579
 1851SOL    HW1 7560   5.949   2.143   5.621
 1851SOL    HW2 7561   5.839   2.246   5.643
 1852SOL     OW 7562   0.181   9.185   8.796
 1852SOL    HW1 7563   0.140   9.167   8.711
 1852SOL    HW2 7564   0.274   9.168   8.782
 1853SOL     OW 7565   0.078   1.320   4.600
 1853SOL    HW1 7566   0.077   1.248   4.663
 1853SOL    HW2 7567   0.005   1.376   4.627
 1854SOL     OW 7568   7.371   2.402   1.247
 1854SOL    HW1 7569   7.452   2.406   1.297
 1854SOL    HW2 7570   7.301   2.406   1.312
 1855SOL     OW 7571   1.165   3.340   0.117
 1855SOL    HW1 7572   1.119   3.259   0.093
 1855SOL    HW2 7573   1.255   3.326   0.087
 1856SOL     OW 7574   1.954   1.572   7.354
 1856SOL    HW1 7575   1.900   1.493   7.348
 1856SOL    HW2 7576   1.929   1.624   7.277
 1857SOL     OW 7577  10.125   4.420  10.682
 1857SOL    HW1 7578  10.139   4.325  10.687
 1857SOL    HW2 7579  10.209   4.458  10.707
 1858SOL     OW 7580   6.588   2.593   4.986
 1858SOL    HW1 7581   6.660   2.656   4.992
 1858SOL    HW2 7582   6.605   2.530   5.056
 1859SOL     OW 7583   0.626   6.682   4.428
 1859SOL    HW1 7584   0.713   6.677   4.388
 1859SOL    HW2 7585   0.642   6.710   4.518
 1860SOL     OW 7586  10.011   2.627  10.193
 1860SOL    HW1 7587  10.030   2.714  10.158
 1860SOL    HW2 7588  10.032   2.567  10.121
 1861SOL     OW 7589   0.132   4.259  11.050
 1861SOL    HW1 7590   0.191   4.202  11.001
 1861SOL    HW2 7591   0.053   4.206  11.062
 1862SOL     OW 7592   9.530   6.489   0.555
 1862SOL    HW1 7593   9.495   6.415   0.605
 1862SOL    HW2 7594   9.540   6.559   0.619
 1863SOL     OW 7595   0.841   6.735  10.725
 1863SOL    HW1 7596   0.905   6.798  10.757
 1863SOL    HW2 7597   0.874   6.709  10.639
 1864SOL     OW 7598   2.706   5.515   5.924
 1864SOL    HW1 7599   2.801   5.513   5.914
 1864SOL    HW2 7600   2.690   5.588   5.983
 1865SOL     OW 7601   5.854  11.093   9.686
 1865SOL    HW1 7602   5.882  11.069   9.774
 1865SOL    HW2 7603   5.806  11.017   9.654
 1866SOL     OW 7604   0.978   0.871  10.321
 1866SOL    HW1 7605   0.889   0.865  10.287
 1866SOL    HW2 7606   0.971   0.849  10.414
 1867SOL     OW 7607   5.128   8.761  10.640
 1867SOL    HW1 7608   5.175   8.828  10.590
 1867SOL    HW2 7609   5.161   8.770  10.729
 1868SOL     OW 7610   8.745   2.406   2.495
 1868SOL    HW1 7611   8.793   2.410   2.412
 1868SOL    HW2 7612   8.742   2.496   2.526
 1869SOL     OW 7613   2.560   6.538   1.254
 1869SOL    HW1 7614   2.520   6.484   1.322
 1869SOL    HW2 7615   2.502   6.528   1.179
 1870SOL     OW 7616   6.313   0.530   4.036
 1870SOL    HW1 7617   6.220   0.509   4.026
 1870SOL    HW2 7618   6.348   0.458   4.089
 1871SOL     OW 7619   9.453   8.187   2.310
 1871SOL    HW1 7620   9.474   8.121   2.376
 1871SOL    HW2 7621   9.359   8.176   2.294
 1872SOL     OW 7622   9.751   5.668   6.550
 1872SOL    HW1 7623   9.741   5.709   6.464
 1872SOL    HW2 7624   9.845   5.649   6.557
 1873SOL     OW 7625   2.471   6.520  10.803
 1873SOL    HW1 7626   2.397   6.580  10.796
 1873SOL    HW2 7627   2.524   6.555  10.874
 1874SOL     OW 7628   7.570   9.582   6.001
 1874SOL    HW1 7629   7.488   9.548   5.964
 1874SOL    HW2 7630   7.566   9.559   6.094
 1875SOL     OW 7631   3.585   0.635   4.246
 1875SOL    HW1 7632   3.563   0.690   4.321
 1875SOL    HW2 7633   3.511   0.644   4.186
 1876SOL     OW 7634  10.282   4.466   9.888
 1876SOL    HW1 7635  10.225   4.443   9.961
 1876SOL    HW2 7636  10.222   4.490   9.817
 1877SOL     OW 7637   8.581   8.646   3.299
 1877SOL    HW1 7638   8.603   8.726   3.251
 1877SOL    HW2 7639   8.553   8.584   3.231
 1878SOL     OW 7640   2.988   7.544   5.085
 1878SOL    HW1 7641   3.046   7.558   5.160
 1878SOL    HW2 7642   3.015   7.610   5.021
 1879SOL     OW 7643   7.553   0.967  10.390
 1879SOL    HW1 7644   7.617   0.897  10.404
 1879SOL    HW2 7645   7.602   1.048  10.405
 1880SOL     OW 7646   4.722   8.096   6.325
 1880SOL    HW1 7647   4.728   8.002   6.345
 1880SOL    HW2 7648   4.810   8.130   6.342
 1881SOL     OW 7649   6.220   2.345   3.730
 1881SOL    HW1 7650   6.302   2.394   3.739
 1881SOL    HW2 7651   6.178   2.353   3.815
 1882SOL     OW 7652   9.597   6.974   6.725
 1882SOL    HW1 7653   9.519   6.989   6.672
 1882SOL    HW2 7654   9.609   6.879   6.723
 1883SOL     OW 7655   9.751  10.903   3.202
 1883SOL    HW1 7656   9.674  10.957   3.186
 1883SOL    HW2 7657   9.810  10.923   3.129
 1884SOL     OW 7658  10.197   1.791   4.313
 1884SOL    HW1 7659  10.224   1.783   4.404
 1884SOL    HW2 7660  10.106   1.819   4.317
 1885SOL     OW 7661   7.889   3.829   2.335
 1885SOL    HW1 7662   7.829   3.857   2.265
 1885SOL    HW2 7663   7.966   3.797   2.288
 1886SOL     OW 7664   5.127   4.064   8.927
 1886SOL    HW1 7665   5.071   4.122   8.978
 1886SOL    HW2 7666   5.112   4.090   8.836
 1887SOL     OW 7667   9.809   3.156   6.619
 1887SOL    HW1 7668   9.888   3.130   6.571
 1887SOL    HW2 7669   9.824   3.125   6.708
 1888SOL     OW 7670  10.598   5.065   2.735
 1888SOL    HW1 7671  10.556   4.979   2.736
 1888SOL    HW2 7672  10.664   5.059   2.665
 1889SOL     OW 7673  10.442   5.108   0.512
 1889SOL    HW1 7674  10.463   5.033   0.455
 1889SOL    HW2 7675  10.433   5.181   0.451
 1890SOL     OW 7676   1.330   8.787   3.778
 1890SOL    HW1 7677   1.347   8.731   3.854
 1890SOL    HW2 7678   1.238   8.770   3.756
 1891SOL     OW 7679   6.470   2.079   4.421
 1891SOL    HW1 7680   6.534   2.055   4.488
 1891SOL    HW2 7681   6.407   2.135   4.467
 1892SOL     OW 7682   6.748   3.598   4.997
 1892SOL    HW1 7683   6.784   3.626   5.081
 1892SOL    HW2 7684   6.743   3.678   4.944
 1893SOL     OW 7685   1.132   7.563   7.646
 1893SOL    HW1 7686   1.210   7.564   7.590
 1893SOL    HW2 7687   1.074   7.499   7.603
 1894SOL     OW 7688   6.484   9.709   8.807
 1894SOL    HW1 7689   6.418   9.737   8.870
 1894SOL    HW2 7690   6.440   9.642   8.755
 1895SOL     OW 7691   3.290   0.851   0.461
 1895SOL    HW1 7692   3.333   0.789   0.520
 1895SOL    HW2 7693   3.357   0.871   0.395
 1896SOL     OW 7694   8.357   2.368  10.038
 1896SOL    HW1 7695   8.268   2.376  10.004
 1896SOL    HW2 7696   8.345   2.347  10.130
 1897SOL     OW 7697   9.586   9.031   4.418
 1897SOL    HW1 7698   9.587   8.998   4.328
 1897SOL    HW2 7699   9.662   9.089   4.423
 1898SOL     OW 7700   9.646   4.904   3.609
 1898SOL    HW1 7701   9.736   4.937   3.615
 1898SOL    HW2 7702   9.649   4.840   3.538
 1899SOL     OW 7703   1.666   3.108   1.332
 1899SOL    HW1 7704   1.595   3.161   1.297
 1899SOL    HW2 7705   1.630   3.019   1.337
 1900SOL     OW 7706   9.279   3.172   4.251
 1900SOL    HW1 7707   9.212   3.146   4.187
 1900SOL    HW2 7708   9.362   3.152   4.207
 1901SOL     OW 7709   5.968   3.838   4.886
 1901SOL    HW1 7710   6.017   3.914   4.916
 1901SOL    HW2 7711   6.031   3.766   4.889
 1902SOL     OW 7712   0.191   3.584  10.581
 1902SOL    HW1 7713   0.252   3.621  10.645
 1902SOL    HW2 7714   0.135   3.657  10.556
 1903SOL     OW 7715   3.352   9.958   5.215
 1903SOL    HW1 7716   3.341   9.981   5.123
 1903SOL    HW2 7717   3.284  10.007   5.260
 1904SOL     OW 7718   1.841   9.572   7.337
 1904SOL    HW1 7719   1.755   9.607   7.314
 1904SOL    HW2 7720   1.839   9.481   7.305
 1905SOL     OW 7721   7.863   0.736   5.385
 1905SOL    HW1 7722   7.773   0.760   5.407
 1905SOL    HW2 7723   7.911   0.819   5.385
 1906SOL     OW 7724   8.949   2.414   2.277
 1906SOL    HW1 7725   9.039   2.443   2.293
 1906SOL    HW2 7726   8.903   2.492   2.248
 1907SOL     OW 7727   2.047   7.265   5.807
 1907SOL    HW1 7728   2.113   7.278   5.874
 1907SOL    HW2 7729   1.998   7.188   5.836
 1908SOL     OW 7730   2.675   5.804   3.320
 1908SOL    HW1 7731   2.583   5.820   3.301
 1908SOL    HW2 7732   2.693   5.719   3.280
 1909SOL     OW 7733   8.439  10.981   5.228
 1909SOL    HW1 7734   8.534  10.977   5.237
 1909SOL    HW2 7735   8.406  10.972   5.317
 1910SOL     OW 7736   5.985   5.109  10.464
 1910SOL    HW1 7737   5.896   5.129  10.491
 1910SOL    HW2 7738   6.006   5.027  10.509
 1911SOL     OW 7739   0.979   3.232   6.074
 1911SOL    HW1 7740   1.011   3.293   6.007
 1911SOL    HW2 7741   1.046   3.164   6.078
 1912SOL     OW 7742   3.460   2.406   9.882
 1912SOL    HW1 7743   3.366   2.397   9.870
 1912SOL    HW2 7744   3.488   2.320   9.914
 1913SOL     OW 7745   7.494   9.722  10.376
 1913SOL    HW1 7746   7.580   9.755  10.349
 1913SOL    HW2 7747   7.438   9.799  10.380
 1914SOL     OW 7748   7.785   2.143   2.993
 1914SOL    HW1 7749   7.846   2.074   3.021
 1914SOL    HW2 7750   7.714   2.095   2.950
 1915SOL     OW 7751   0.732   5.918   1.351
 1915SOL    HW1 7752   0.731   5.869   1.433
 1915SOL    HW2 7753   0.655   5.974   1.355
 1916SOL     OW 7754   7.006   4.266   7.595
 1916SOL    HW1 7755   7.069   4.206   7.554
 1916SOL    HW2 7756   6.933   4.269   7.533
 1917SOL     OW 7757   9.414   1.434   2.177
 1917SOL    HW1 7758   9.321   1.444   2.158
 1917SOL    HW2 7759   9.425   1.470   2.264
 1918SOL     OW 7760   1.513   3.440   1.631
 1918SOL    HW1 7761   1.520   3.399   1.717
 1918SOL    HW2 7762   1.419   3.447   1.615
 1919SOL     OW 7763   3.427   1.406   2.014
 1919SOL    HW1 7764   3.489   1.478   2.004
 1919SOL    HW2 7765   3.476   1.328   1.987
 1920SOL     OW 7766   8.879   9.413  10.004
 1920SOL    HW1 7767   8.965   9.450   9.986
 1920SOL    HW2 7768   8.824   9.444   9.932
 1921SOL     OW 7769   1.321   3.990   7.111
 1921SOL    HW1 7770   1.318   4.078   7.148
 1921SOL    HW2 7771   1.368   4.000   7.028
 1922SOL     OW 7772   0.274   2.822   9.892
 1922SOL    HW1 7773   0.323   2.759   9.838
 1922SOL    HW2 7774   0.313   2.907   9.872
 1923SOL     OW 7775   8.228  10.048   3.839
 1923SOL    HW1 7776   8.214   9.990   3.763
 1923SOL    HW2 7777   8.157  10.026   3.899
 1924SOL     OW 7778   9.131   8.832   1.512
 1924SOL    HW1 7779   9.112   8.855   1.421
 1924SOL    HW2 7780   9.113   8.912   1.561
 1925SOL     OW 7781  10.798   7.780   7.532
 1925SOL    HW1 7782  10.729   7.714   7.538
 1925SOL    HW2 7783  10.879   7.729   7.527
 1926SOL     OW 7784   4.982   0.037   6.582
 1926SOL    HW1 7785   4.918   0.102   6.610
 1926SOL    HW2 7786   4.948  -0.047   6.614
 1927SOL     OW 7787  10.073  10.291   5.760
 1927SOL    HW1 7788   9.978  10.299   5.771
 1927SOL    HW2 7789  10.094  10.204   5.795
 1928SOL     OW 7790   2.149   0.530   6.693
 1928SOL    HW1 7791   2.162   0.527   6.787
 1928SOL    HW2 7792   2.055   0.521   6.681
 1929SOL     OW 7793   2.657   9.767   1.792
 1929SOL    HW1 7794   2.738   9.778   1.742
 1929SOL    HW2 7795   2.640   9.673   1.788
 1930SOL     OW 7796   8.666   1.607   4.576
 1930SOL    HW1 7797   8.624   1.657   4.506
 1930SOL    HW2 7798   8.688   1.523   4.535
 1931SOL     OW 7799   0.435   2.838   9.004
 1931SOL    HW1 7800   0.529   2.819   9.005
 1931SOL    HW2 7801   0.428   2.924   9.045
 1932SOL     OW 7802   3.817   9.119   3.470
 1932SOL    HW1 7803   3.739   9.105   3.524
 1932SOL    HW2 7804   3.790   9.092   3.382
 1933SOL     OW 7805   9.047   3.161   2.221
 1933SOL    HW1 7806   9.120   3.144   2.161
 1933SOL    HW2 7807   9.072   3.241   2.266
 1934SOL     OW 7808   3.774  10.932   3.701
 1934SOL    HW1 7809   3.722  11.012   3.698
 1934SOL    HW2 7810   3.717  10.868   3.743
 1935SOL     OW 7811   4.507  10.755   6.573
 1935SOL    HW1 7812   4.557  10.804   6.507
 1935SOL    HW2 7813   4.572  10.730   6.638
 1936SOL     OW 7814   1.195   5.193   5.372
 1936SOL    HW1 7815   1.257   5.126   5.342
 1936SOL    HW2 7816   1.186   5.177   5.466
 1937SOL     OW 7817   6.933   9.781   8.216
 1937SOL    HW1 7818   6.872   9.787   8.289
 1937SOL    HW2 7819   6.907   9.701   8.170
 1938SOL     OW 7820   0.994   2.594   6.561
 1938SOL    HW1 7821   1.005   2.688   6.550
 1938SOL    HW2 7822   0.899   2.581   6.567
 1939SOL     OW 7823   6.972   2.950   5.982
 1939SOL    HW1 7824   6.907   2.931   6.049
 1939SOL    HW2 7825   6.948   2.893   5.909
 1940SOL     OW 7826   0.721   2.066   4.943
 1940SOL    HW1 7827   0.637   2.021   4.946
 1940SOL    HW2 7828   0.768   2.034   5.020
 1941SOL     OW 7829   1.382  10.243   5.976
 1941SOL    HW1 7830   1.467  10.287   5.975
 1941SOL    HW2 7831   1.325  10.301   6.025
 1942SOL     OW 7832   6.081  10.046   8.650
 1942SOL    HW1 7833   6.135   9.967   8.655
 1942SOL    HW2 7834   6.144  10.117   8.639
 1943SOL     OW 7835   8.336   6.207   8.499
 1943SOL    HW1 7836   8.278   6.153   8.553
 1943SOL    HW2 7837   8.420   6.161   8.501
 1944SOL     OW 7838   1.545   2.362   2.219
 1944SOL    HW1 7839   1.455   2.335   2.234
 1944SOL    HW2 7840   1.597   2.306   2.277
 1945SOL     OW 7841   9.246   6.463   5.734
 1945SOL    HW1 7842   9.321   6.521   5.750
 1945SOL    HW2 7843   9.285   6.384   5.696
 1946SOL     OW 7844   3.283   1.186   5.324
 1946SOL    HW1 7845   3.204   1.223   5.285
 1946SOL    HW2 7846   3.355   1.224   5.274
 1947SOL     OW 7847   3.037   9.485   7.087
 1947SOL    HW1 7848   3.096   9.410   7.077
 1947SOL    HW2 7849   3.051   9.537   7.008
 1948SOL     OW 7850   8.438   2.520   5.994
 1948SOL    HW1 7851   8.498   2.465   5.943
 1948SOL    HW2 7852   8.412   2.589   5.933
 1949SOL     OW 7853   0.271  10.336   2.745
 1949SOL    HW1 7854   0.264  10.271   2.674
 1949SOL    HW2 7855   0.200  10.313   2.805
 1950SOL     OW 7856   3.825   0.668   5.339
 1950SOL    HW1 7857   3.732   0.656   5.359
 1950SOL    HW2 7858   3.841   0.761   5.352
 1951SOL     OW 7859   2.144   9.119   0.427
 1951SOL    HW1 7860   2.185   9.153   0.506
 1951SOL    HW2 7861   2.142   9.024   0.439
 1952SOL     OW 7862   9.352  10.758   6.732
 1952SOL    HW1 7863   9.299  10.817   6.678
 1952SOL    HW2 7864   9.426  10.812   6.761
 1953SOL     OW 7865   3.927   0.059   4.288
 1953SOL    HW1 7866   3.862   0.117   4.249
 1953SOL    HW2 7867   4.010   0.105   4.277
 1954SOL     OW 7868   5.699   4.526   4.409
 1954SOL    HW1 7869   5.672   4.501   4.497
 1954SOL    HW2 7870   5.766   4.593   4.422
 1955SOL     OW 7871   1.141   2.943   1.978
 1955SOL    HW1 7872   1.178   3.030   1.968
 1955SOL    HW2 7873   1.084   2.949   2.054
 1956SOL     OW 7874   7.343   2.559   2.438
 1956SOL    HW1 7875   7.353   2.653   2.447
 1956SOL    HW2 7876   7.431   2.527   2.417
 1957SOL     OW 7877   6.088   3.347   2.125
 1957SOL    HW1 7878   6.120   3.380   2.041
 1957SOL    HW2 7879   6.021   3.409   2.151
 1958SOL     OW 7880   1.056   3.082   0.085
 1958SOL    HW1 7881   0.980   3.023   0.090
 1958SOL    HW2 7882   1.131   3.023   0.075
 1959SOL     OW 7883   7.302  10.575   5.756
 1959SOL    HW1 7884   7.389  10.606   5.731
 1959SOL    HW2 7885   7.278  10.629   5.831
 1960SOL     OW 7886   5.807   3.684   1.366
 1960SOL    HW1 7887   5.777   3.729   1.287
 1960SOL    HW2 7888   5.749   3.608   1.374
 1961SOL     OW 7889   9.986   8.494   9.772
 1961SOL    HW1 7890   9.964   8.503   9.864
 1961SOL    HW2 7891   9.914   8.443   9.735
 1962SOL     OW 7892   7.519  11.070   5.224
 1962SOL    HW1 7893   7.589  11.011   5.196
 1962SOL    HW2 7894   7.542  11.154   5.185
 1963SOL     OW 7895   5.692   4.101   2.601
 1963SOL    HW1 7896   5.786   4.102   2.580
 1963SOL    HW2 7897   5.682   4.167   2.669
 1964SOL     OW 7898   4.152   3.571   3.405
 1964SOL    HW1 7899   4.234   3.617   3.388
 1964SOL    HW2 7900   4.167   3.524   3.487
 1965SOL     OW 7901  10.441   4.832   5.580
 1965SOL    HW1 7902  10.452   4.900   5.646
 1965SOL    HW2 7903  10.367   4.862   5.527
 1966SOL     OW 7904   7.390   3.991   7.670
 1966SOL    HW1 7905   7.468   4.038   7.641
 1966SOL    HW2 7906   7.317   4.036   7.627
 1967SOL     OW 7907   6.320   3.223   9.474
 1967SOL    HW1 7908   6.381   3.230   9.401
 1967SOL    HW2 7909   6.313   3.129   9.489
 1968SOL     OW 7910   0.116   1.701   7.005
 1968SOL    HW1 7911   0.153   1.630   7.057
 1968SOL    HW2 7912   0.111   1.775   7.065
 1969SOL     OW 7913   3.554   8.518   2.827
 1969SOL    HW1 7914   3.591   8.606   2.833
 1969SOL    HW2 7915   3.625   8.465   2.791
 1970SOL     OW 7916   8.330   2.288   2.280
 1970SOL    HW1 7917   8.364   2.200   2.296
 1970SOL    HW2 7918   8.354   2.338   2.358
 1971SOL     OW 7919   1.582   1.658   7.790
 1971SOL    HW1 7920   1.565   1.751   7.775
 1971SOL    HW2 7921   1.516   1.631   7.854
 1972SOL     OW 7922   4.401   3.998   5.833
 1972SOL    HW1 7923   4.369   3.920   5.879
 1972SOL    HW2 7924   4.496   3.994   5.843
 1973SOL     OW 7925   9.524   9.257   5.412
 1973SOL    HW1 7926   9.507   9.178   5.360
 1973SOL    HW2 7927   9.480   9.327   5.364
 1974SOL     OW 7928   4.873   4.681   7.125
 1974SOL    HW1 7929   4.916   4.711   7.205
 1974SOL    HW2 7930   4.897   4.746   7.059
 1975SOL     OW 7931   1.094   0.087   3.166
 1975SOL    HW1 7932   1.010   0.053   3.135
 1975SOL    HW2 7933   1.152   0.079   3.090
 1976SOL     OW 7934   8.831   7.959   4.355
 1976SOL    HW1 7935   8.916   7.923   4.329
 1976SOL    HW2 7936   8.794   7.893   4.413
 1977SOL     OW 7937   2.837   7.967   7.527
 1977SOL    HW1 7938   2.888   8.017   7.591
 1977SOL    HW2 7939   2.890   7.970   7.447
 1978SOL     OW 7940   7.488   7.975   9.384
 1978SOL    HW1 7941   7.580   7.953   9.369
 1978SOL    HW2 7942   7.489   8.067   9.408
 1979SOL     OW 7943   7.240   4.914   6.552
 1979SOL    HW1 7944   7.213   4.952   6.635
 1979SOL    HW2 7945   7.273   4.988   6.501
 1980SOL     OW 7946   0.996   3.368   6.326
 1980SOL    HW1 7947   1.013   3.319   6.245
 1980SOL    HW2 7948   0.901   3.380   6.327
 1981SOL     OW 7949   5.684   4.328   7.782
 1981SOL    HW1 7950   5.654   4.362   7.697
 1981SOL    HW2 7951   5.748   4.392   7.813
 1982SOL     OW 7952   4.751   2.207   3.154
 1982SOL    HW1 7953   4.703   2.289   3.162
 1982SOL    HW2 7954   4.825   2.216   3.214
 1983SOL     OW 7955   8.567   0.642   1.871
 1983SOL    HW1 7956   8.543   0.711   1.932
 1983SOL    HW2 7957   8.659   0.623   1.891
 1984SOL     OW 7958   4.716  10.278   4.555
 1984SOL    HW1 7959   4.681  10.213   4.494
 1984SOL    HW2 7960   4.811  10.268   4.549
 1985SOL     OW 7961   9.896   1.552   2.736
 1985SOL    HW1 7962   9.843   1.579   2.661
 1985SOL    HW2 7963   9.986   1.555   2.704
 1986SOL     OW 7964   1.121  10.750   7.604
 1986SOL    HW1 7965   1.144  10.817   7.668
 1986SOL    HW2 7966   1.034  10.776   7.573
 1987SOL     OW 7967   0.856   4.193  10.970
 1987SOL    HW1 7968   0.835   4.112  10.923
 1987SOL    HW2 7969   0.772   4.227  10.999
 1988SOL     OW 7970   4.249   4.616   0.834
 1988SOL    HW1 7971   4.247   4.708   0.807
 1988SOL    HW2 7972   4.261   4.619   0.929
 1989SOL     OW 7973   0.277   0.841   6.306
 1989SOL    HW1 7974   0.322   0.923   6.287
 1989SOL    HW2 7975   0.201   0.867   6.359
 1990SOL     OW 7976   2.135   0.933   9.365
 1990SOL    HW1 7977   2.147   0.839   9.348
 1990SOL    HW2 7978   2.050   0.953   9.327
 1991SOL     OW 7979  10.880   5.240   2.776
 1991SOL    HW1 7980  10.935   5.316   2.795
 1991SOL    HW2 7981  10.822   5.269   2.706
 1992SOL     OW 7982   1.787   9.441   6.192
 1992SOL    HW1 7983   1.725   9.416   6.260
 1992SOL    HW2 7984   1.733   9.477   6.122
 1993SOL     OW 7985  10.468   3.679   5.563
 1993SOL    HW1 7986  10.415   3.696   5.485
 1993SOL    HW2 7987  10.448   3.751   5.622
 1994SOL     OW 7988   3.142  10.246   6.594
 1994SOL    HW1 7989   3.122  10.312   6.528
 1994SOL    HW2 7990   3.230  10.215   6.571
 1995SOL     OW 7991   8.187   0.583   5.081
 1995SOL    HW1 7992   8.143   0.611   5.001
 1995SOL    HW2 7993   8.257   0.647   5.094
 1996SOL     OW 7994   9.834   1.844   8.161
 1996SOL    HW1 7995   9.782   1.806   8.089
 1996SOL    HW2 7996   9.789   1.816   8.240
 1997SOL     OW 7997   5.523   0.959   3.675
 1997SOL    HW1 7998   5.461   0.909   3.621
 1997SOL    HW2 7999   5.593   0.983   3.614
 1998SOL     OW 8000   2.824   7.248  10.435
 1998SOL    HW1 8001   2.883   7.290  10.497
 1998SOL    HW2 8002   2.763   7.317  10.410
 1999SOL     OW 8003   7.167  11.068  10.754
 1999SOL    HW1 8004   7.254  11.046  10.720
 1999SOL    HW2 8005   7.139  10.989  10.799
 2000SOL     OW 8006   2.088  10.206   7.087
 2000SOL    HW1 8007   2.126  10.241   7.168
 2000SOL    HW2 8008   1.995  10.198   7.105
 2001SOL     OW 8009   9.656   1.372   4.257
 2001SOL    HW1 8010   9.732   1.398   4.205
 2001SOL    HW2 8011   9.692   1.316   4.326
 2002SOL     OW 8012   2.770   2.240   0.663
 2002SOL    HW1 8013   2.858   2.225   0.696
 2002SOL    HW2 8014   2.783   2.297   0.587
 2003SOL     OW 8015   6.730   2.925   3.498
 2003SOL    HW1 8016   6.771   2.850   3.455
 2003SOL    HW2 8017   6.760   2.920   3.588
 2004SOL     OW 8018   0.255   4.783   4.787
 2004SOL    HW1 8019   0.322   4.834   4.831
 2004SOL    HW2 8020   0.172   4.816   4.822
 2005SOL     OW 8021   2.118  10.065   0.044
 2005SOL    HW1 8022   2.172  10.041   0.120
 2005SOL    HW2 8023   2.167  10.134   0.000
 2006SOL     OW 8024   9.929   5.192   2.030
 2006SOL    HW1 8025   9.913   5.286   2.028
 2006SOL    HW2 8026   9.966   5.172   1.943
 2007SOL     OW 8027   6.439   9.567   5.019
 2007SOL    HW1 8028   6.379   9.538   5.088
 2007SOL    HW2 8029   6.425   9.661   5.014
 2008SOL     OW 8030   0.088   4.949   1.339
 2008SOL    HW1 8031   0.165   4.947   1.395
 2008SOL    HW2 8032   0.067   4.856   1.324
 2009SOL     OW 8033   6.682   1.538  10.440
 2009SOL    HW1 8034   6.679   1.541  10.344
 2009SOL    HW2 8035   6.608   1.482  10.464
 2010SOL     OW 8036   0.725   3.572   3.576
 2010SOL    HW1 8037   0.787   3.645   3.574
 2010SOL    HW2 8038   0.736   3.534   3.663
 2011SOL     OW 8039   1.975   2.330   0.082
 2011SOL    HW1 8040   2.045   2.354   0.021
 2011SOL    HW2 8041   1.897   2.321   0.028
 2012SOL     OW 8042   8.440   2.023   5.589
 2012SOL    HW1 8043   8.443   1.927   5.583
 2012SOL    HW2 8044   8.347   2.044   5.592
 2013SOL     OW 8045   2.625   7.325   7.050
 2013SOL    HW1 8046   2.583   7.401   7.011
 2013SOL    HW2 8047   2.712   7.323   7.011
 2014SOL     OW 8048   3.801   6.728   1.630
 2014SOL    HW1 8049   3.734   6.722   1.698
 2014SOL    HW2 8050   3.824   6.821   1.627
 2015SOL     OW 8051   7.844   2.458   8.022
 2015SOL    HW1 8052   7.854   2.539   7.973
 2015SOL    HW2 8053   7.931   2.441   8.059
 2016SOL     OW 8054   9.148  10.158   9.338
 2016SOL    HW1 8055   9.204  10.163   9.260
 2016SOL    HW2 8056   9.204  10.190   9.409
 2017SOL     OW 8057   3.489   8.766   3.276
 2017SOL    HW1 8058   3.407   8.757   3.227
 2017SOL    HW2 8059   3.554   8.792   3.210
 2018SOL     OW 8060   2.572  10.805   9.995
 2018SOL    HW1 8061   2.601  10.851  10.074
 2018SOL    HW2 8062   2.521  10.731  10.027
 2019SOL     OW 8063   7.482   4.375   1.810
 2019SOL    HW1 8064   7.566   4.389   1.766
 2019SOL    HW2 8065   7.470   4.452   1.864
 2020SOL     OW 8066   0.550   4.065   5.014
 2020SOL    HW1 8067   0.474   4.034   5.063
 2020SOL    HW2 8068   0.568   4.152   5.049
 2021SOL     OW 8069   8.812   8.753   2.895
 2021SOL    HW1 8070   8.814   8.674   2.841
 2021SOL    HW2 8071   8.885   8.805   2.862
 2022SOL     OW 8072   9.196   7.948  10.504
 2022SOL    HW1 8073   9.217   8.038  10.482
 2022SOL    HW2 8074   9.121   7.927  10.449
 2023SOL     OW 8075   0.328   8.384   4.658
 2023SOL    HW1 8076   0.246   8.336   4.670
 2023SOL    HW2 8077   0.379   8.328   4.600
 2024SOL     OW 8078  10.865   5.719   7.477
 2024SOL    HW1 8079  10.811   5.783   7.431
 2024SOL    HW2 8080  10.925   5.685   7.410
 2025SOL     OW 8081   7.054   3.349   1.460
 2025SOL    HW1 8082   7.120   3.313   1.519
 2025SOL    HW2 8083   7.092   3.431   1.428
 2026SOL     OW 8084   7.598   0.501   9.270
 2026SOL    HW1 8085   7.611   0.407   9.286
 2026SOL    HW2 8086   7.669   0.543   9.318
 2027SOL     OW 8087   8.714   4.157   7.304
 2027SOL    HW1 8088   8.787   4.157   7.242
 2027SOL    HW2 8089   8.668   4.074   7.287
 2028SOL     OW 8090   0.251   8.538   3.694
 2028SOL    HW1 8091   0.156   8.527   3.682
 2028SOL    HW2 8092   0.289   8.459   3.656
 2029SOL     OW 8093   7.138   2.711   1.481
 2029SOL    HW1 8094   7.100   2.692   1.567
 2029SOL    HW2 8095   7.200   2.782   1.497
 2030SOL     OW 8096   3.998   3.156   5.782
 2030SOL    HW1 8097   3.941   3.155   5.858
 2030SOL    HW2 8098   4.085   3.174   5.817
 2031SOL     OW 8099   3.368   0.559   6.747
 2031SOL    HW1 8100   3.445   0.595   6.703
 2031SOL    HW2 8101   3.314   0.635   6.768
 2032SOL     OW 8102   0.465   4.126   5.358
 2032SOL    HW1 8103   0.405   4.094   5.290
 2032SOL    HW2 8104   0.439   4.216   5.373
 2033SOL     OW 8105   8.276   1.134   2.279
 2033SOL    HW1 8106   8.210   1.086   2.229
 2033SOL    HW2 8107   8.279   1.089   2.363
 2034SOL     OW 8108   0.643   9.968   2.380
 2034SOL    HW1 8109   0.674   9.967   2.289
 2034SOL    HW2 8110   0.609   9.879   2.395
 2035SOL     OW 8111   0.950   1.010   0.772
 2035SOL    HW1 8112   0.920   0.946   0.836
 2035SOL    HW2 8113   0.897   1.088   0.788
 2036SOL     OW 8114  10.779   8.147   8.447
 2036SOL    HW1 8115  10.853   8.206   8.458
 2036SOL    HW2 8116  10.708   8.202   8.415
 2037SOL     OW 8117   6.902   3.162   6.514
 2037SOL    HW1 8118   6.953   3.241   6.529
 2037SOL    HW2 8119   6.842   3.156   6.588
 2038SOL     OW 8120   5.060   3.941   0.973
 2038SOL    HW1 8121   5.093   3.870   0.917
 2038SOL    HW2 8122   5.130   3.955   1.037
 2039SOL     OW 8123   6.477   1.535   8.191
 2039SOL    HW1 8124   6.572   1.542   8.204
 2039SOL    HW2 8125   6.459   1.593   8.117
 2040SOL     OW 8126   0.410   7.775   7.249
 2040SOL    HW1 8127   0.484   7.722   7.219
 2040SOL    HW2 8128   0.400   7.752   7.341
 2041SOL     OW 8129   6.179   8.799   9.260
 2041SOL    HW1 8130   6.144   8.734   9.321
 2041SOL    HW2 8131   6.195   8.749   9.180
 2042SOL     OW 8132   4.771   6.354   8.590
 2042SOL    HW1 8133   4.778   6.259   8.604
 2042SOL    HW2 8134   4.703   6.363   8.523
 2043SOL     OW 8135   0.312   8.330   5.146
 2043SOL    HW1 8136   0.335   8.331   5.053
 2043SOL    HW2 8137   0.363   8.401   5.184
 2044SOL     OW 8138   0.992   7.584   5.359
 2044SOL    HW1 8139   0.970   7.591   5.452
 2044SOL    HW2 8140   0.925   7.636   5.315
 2045SOL     OW 8141   3.247   0.121   9.144
 2045SOL    HW1 8142   3.246   0.216   9.156
 2045SOL    HW2 8143   3.186   0.088   9.210
 2046SOL     OW 8144   3.775   0.952   5.335
 2046SOL    HW1 8145   3.685   0.955   5.367
 2046SOL    HW2 8146   3.767   0.929   5.242
 2047SOL     OW 8147   8.978   3.887   7.079
 2047SOL    HW1 8148   8.945   3.797   7.082
 2047SOL    HW2 8149   9.046   3.885   7.012
 2048SOL     OW 8150   3.203   9.017   0.568
 2048SOL    HW1 8151   3.265   8.970   0.624
 2048SOL    HW2 8152   3.186   8.956   0.495
 2049SOL     OW 8153   5.047   9.769   4.637
 2049SOL    HW1 8154   5.131   9.725   4.649
 2049SOL    HW2 8155   5.070   9.859   4.615
 2050SOL     OW 8156  10.961   4.335   7.594
 2050SOL    HW1 8157  10.986   4.406   7.535
 2050SOL    HW2 8158  10.911   4.274   7.539
 2051SOL     OW 8159   4.123   0.799   0.782
 2051SOL    HW1 8160   4.207   0.757   0.763
 2051SOL    HW2 8161   4.141   0.893   0.775
 2052SOL     OW 8162   5.968   9.870   1.191
 2052SOL    HW1 8163   5.895   9.824   1.150
 2052SOL    HW2 8164   5.950   9.962   1.175
 2053SOL     OW 8165   2.128   4.747   0.042
 2053SOL    HW1 8166   2.206   4.746   0.099
 2053SOL    HW2 8167   2.122   4.657   0.008
 2054SOL     OW 8168  10.300   6.253   6.572
 2054SOL    HW1 8169  10.335   6.301   6.647
 2054SOL    HW2 8170  10.215   6.221   6.602
 2055SOL     OW 8171   2.549   0.886   9.560
 2055SOL    HW1 8172   2.454   0.889   9.549
 2055SOL    HW2 8173   2.566   0.933   9.641
 2056SOL     OW 8174  11.091   6.422   6.269
 2056SOL    HW1 8175  11.022   6.488   6.270
 2056SOL    HW2 8176  11.054   6.349   6.219
 2057SOL     OW 8177   0.804   7.341   3.096
 2057SOL    HW1 8178   0.781   7.252   3.123
 2057SOL    HW2 8179   0.884   7.361   3.145
 2058SOL     OW 8180   5.821  10.908   9.201
 2058SOL    HW1 8181   5.850  10.860   9.123
 2058SOL    HW2 8182   5.871  10.989   9.199
 2059SOL     OW 8183   3.281   0.551   7.931
 2059SOL    HW1 8184   3.277   0.471   7.984
 2059SOL    HW2 8185   3.328   0.525   7.852
 2060SOL     OW 8186   1.156   0.771   4.454
 2060SOL    HW1 8187   1.125   0.843   4.400
 2060SOL    HW2 8188   1.230   0.735   4.405
 2061SOL     OW 8189   4.717   1.360   6.122
 2061SOL    HW1 8190   4.735   1.433   6.063
 2061SOL    HW2 8191   4.774   1.375   6.197
 2062SOL     OW 8192  10.975   3.747  10.002
 2062SOL    HW1 8193  10.915   3.798   9.947
 2062SOL    HW2 8194  11.017   3.686   9.941
 2063SOL     OW 8195   3.043  10.500   3.267
 2063SOL    HW1 8196   2.965  10.548   3.241
 2063SOL    HW2 8197   3.014  10.409   3.275
 2064SOL     OW 8198   6.062   1.008   3.351
 2064SOL    HW1 8199   6.094   0.922   3.321
 2064SOL    HW2 8200   6.142   1.058   3.368
 2065SOL     OW 8201   1.391   4.393   1.524
 2065SOL    HW1 8202   1.484   4.370   1.531
 2065SOL    HW2 8203   1.350   4.315   1.487
 2066SOL     OW 8204   4.249   3.452   7.190
 2066SOL    HW1 8205   4.206   3.482   7.110
 2066SOL    HW2 8206   4.179   3.444   7.254
 2067SOL     OW 8207  10.046   5.655   0.287
 2067SOL    HW1 8208  10.112   5.602   0.332
 2067SOL    HW2 8209   9.987   5.684   0.356
 2068SOL     OW 8210   3.135  10.442   7.886
 2068SOL    HW1 8211   3.057  10.387   7.892
 2068SOL    HW2 8212   3.131  10.479   7.798
 2069SOL     OW 8213   0.455   1.501   3.930
 2069SOL    HW1 8214   0.398   1.467   3.860
 2069SOL    HW2 8215   0.442   1.595   3.928
 2070SOL     OW 8216   3.996   1.722   1.498
 2070SOL    HW1 8217   3.956   1.676   1.572
 2070SOL    HW2 8218   4.021   1.807   1.533
 2071SOL     OW 8219   1.726   9.571   3.166
 2071SOL    HW1 8220   1.778   9.501   3.124
 2071SOL    HW2 8221   1.640   9.532   3.179
 2072SOL     OW 8222   1.000   1.671   0.971
 2072SOL    HW1 8223   1.013   1.579   0.994
 2072SOL    HW2 8224   1.059   1.685   0.896
 2073SOL     OW 8225   8.208   8.146   2.858
 2073SOL    HW1 8226   8.263   8.079   2.817
 2073SOL    HW2 8227   8.217   8.223   2.801
 2074SOL     OW 8228   9.008   3.093   4.222
 2074SOL    HW1 8229   8.982   3.040   4.297
 2074SOL    HW2 8230   9.053   3.030   4.164
 2075SOL     OW 8231   0.226   0.649   3.379
 2075SOL    HW1 8232   0.163   0.602   3.324
 2075SOL    HW2 8233   0.182   0.660   3.463
 2076SOL     OW 8234   0.736   5.742   7.973
 2076SOL    HW1 8235   0.799   5.675   8.001
 2076SOL    HW2 8236   0.737   5.807   8.043
 2077SOL     OW 8237   3.506   3.652   9.789
 2077SOL    HW1 8238   3.441   3.705   9.835
 2077SOL    HW2 8239   3.493   3.673   9.696
 2078SOL     OW 8240   6.066   2.272   3.956
 2078SOL    HW1 8241   6.137   2.290   4.017
 2078SOL    HW2 8242   5.986   2.288   4.006
 2079SOL     OW 8243   2.261   9.132   7.291
 2079SOL    HW1 8244   2.352   9.153   7.268
 2079SOL    HW2 8245   2.262   9.120   7.386
 2080SOL     OW 8246   1.113   8.415   9.384
 2080SOL    HW1 8247   1.106   8.476   9.310
 2080SOL    HW2 8248   1.022   8.396   9.408
 2081SOL     OW 8249  11.098   2.083   6.647
 2081SOL    HW1 8250  11.019   2.136   6.660
 2081SOL    HW2 8251  11.109   2.079   6.552
 2082SOL     OW 8252   7.335   4.284   7.426
 2082SOL    HW1 8253   7.350   4.332   7.344
 2082SOL    HW2 8254   7.242   4.260   7.423
 2083SOL     OW 8255   9.292   2.551   3.013
 2083SOL    HW1 8256   9.284   2.457   2.997
 2083SOL    HW2 8257   9.253   2.592   2.936
 2084SOL     OW 8258   6.072   4.405  10.598
 2084SOL    HW1 8259   6.102   4.465  10.529
 2084SOL    HW2 8260   6.152   4.382  10.646
 2085SOL     OW 8261   0.888   2.769   2.322
 2085SOL    HW1 8262   0.796   2.793   2.331
 2085SOL    HW2 8263   0.891   2.716   2.242
 2086SOL     OW 8264   2.948   6.021  10.006
 2086SOL    HW1 8265   3.018   6.016  10.071
 2086SOL    HW2 8266   2.966   5.948   9.946
 2087SOL     OW 8267   1.695   0.359   6.997
 2087SOL    HW1 8268   1.674   0.439   7.045
 2087SOL    HW2 8269   1.657   0.372   6.910
 2088SOL     OW 8270   2.203  10.667   7.360
 2088SOL    HW1 8271   2.249  10.683   7.442
 2088SOL    HW2 8272   2.264  10.615   7.308
 2089SOL     OW 8273   9.731   1.639   3.036
 2089SOL    HW1 8274   9.781   1.581   2.978
 2089SOL    HW2 8275   9.640   1.623   3.013
 2090SOL     OW 8276   1.620   9.182   7.925
 2090SOL    HW1 8277   1.609   9.246   7.995
 2090SOL    HW2 8278   1.685   9.221   7.866
 2091SOL     OW 8279  10.484   2.200  10.665
 2091SOL    HW1 8280  10.550   2.252  10.619
 2091SOL    HW2 8281  10.401   2.232  10.631
 2092SOL     OW 8282   6.796   8.831   3.153
 2092SOL    HW1 8283   6.874   8.887   3.147
 2092SOL    HW2 8284   6.826   8.745   3.122
 2093SOL     OW 8285   5.493  10.731   9.691
 2093SOL    HW1 8286   5.482  10.648   9.738
 2093SOL    HW2 8287   5.422  10.787   9.724
 2094SOL     OW 8288   3.838   4.028   8.272
 2094SOL    HW1 8289   3.762   4.057   8.222
 2094SOL    HW2 8290   3.885   4.108   8.293
 2095SOL     OW 8291   8.648   1.325   1.501
 2095SOL    HW1 8292   8.644   1.310   1.595
 2095SOL    HW2 8293   8.557   1.336   1.475
 2096SOL     OW 8294   3.701   9.636   2.900
 2096SOL    HW1 8295   3.741   9.549   2.895
 2096SOL    HW2 8296   3.623   9.623   2.953
 2097SOL     OW 8297   2.528   3.157   3.795
 2097SOL    HW1 8298   2.599   3.101   3.827
 2097SOL    HW2 8299   2.450   3.101   3.800
 2098SOL     OW 8300   2.586   3.985   5.722
 2098SOL    HW1 8301   2.595   4.012   5.631
 2098SOL    HW2 8302   2.606   3.891   5.720
 2099SOL     OW 8303   8.706   6.663   6.799
 2099SOL    HW1 8304   8.758   6.676   6.878
 2099SOL    HW2 8305   8.766   6.683   6.727
 2100SOL     OW 8306   2.293   6.171  10.440
 2100SOL    HW1 8307   2.328   6.138  10.357
 2100SOL    HW2 8308   2.224   6.109  10.462
 2101SOL     OW 8309   1.124   3.826   2.730
 2101SOL    HW1 8310   1.100   3.767   2.658
 2101SOL    HW2 8311   1.047   3.880   2.742
 2102SOL     OW 8312   1.082   4.520   2.737
 2102SOL    HW1 8313   1.153   4.467   2.700
 2102SOL    HW2 8314   1.004   4.464   2.731
 2103SOL     OW 8315   4.611  10.799   3.763
 2103SOL    HW1 8316   4.703  10.772   3.755
 2103SOL    HW2 8317   4.590  10.787   3.855
 2104SOL     OW 8318   3.093  10.602   5.709
 2104SOL    HW1 8319   3.021  10.620   5.770
 2104SOL    HW2 8320   3.138  10.526   5.746
 2105SOL     OW 8321  10.518  10.057   0.847
 2105SOL    HW1 8322  10.550  10.072   0.758
 2105SOL    HW2 8323  10.597  10.050   0.900
 2106SOL     OW 8324   2.436   0.058   5.942
 2106SOL    HW1 8325   2.426   0.153   5.940
 2106SOL    HW2 8326   2.527   0.043   5.916
 2107SOL     OW 8327   6.929   5.238   8.483
 2107SOL    HW1 8328   6.880   5.242   8.401
 2107SOL    HW2 8329   6.942   5.144   8.498
 2108SOL     OW 8330   1.628   8.631   4.105
 2108SOL    HW1 8331   1.632   8.610   4.011
 2108SOL    HW2 8332   1.662   8.552   4.148
 2109SOL     OW 8333   0.737   6.139   5.349
 2109SOL    HW1 8334   0.799   6.186   5.405
 2109SOL    HW2 8335   0.753   6.046   5.368
 2110SOL     OW 8336   8.038   2.815   2.677
 2110SOL    HW1 8337   8.048   2.832   2.583
 2110SOL    HW2 8338   8.099   2.876   2.719
 2111SOL     OW 8339   2.486   8.328   8.080
 2111SOL    HW1 8340   2.460   8.415   8.051
 2111SOL    HW2 8341   2.462   8.325   8.172
 2112SOL     OW 8342   5.510   7.577   5.992
 2112SOL    HW1 8343   5.473   7.542   6.073
 2112SOL    HW2 8344   5.465   7.660   5.978
 2113SOL     OW 8345   5.275   5.933   4.890
 2113SOL    HW1 8346   5.302   5.871   4.822
 2113SOL    HW2 8347   5.353   5.945   4.944
 2114SOL     OW 8348   4.030   4.688   8.507
 2114SOL    HW1 8349   3.968   4.741   8.556
 2114SOL    HW2 8350   4.116   4.714   8.540
 2115SOL     OW 8351   3.989   7.540   2.986
 2115SOL    HW1 8352   3.962   7.456   3.024
 2115SOL    HW2 8353   3.922   7.602   3.014
 2116SOL     OW 8354   8.670   5.880   0.878
 2116SOL    HW1 8355   8.575   5.878   0.890
 2116SOL    HW2 8356   8.704   5.821   0.945
 2117SOL     OW 8357  10.559   3.776   3.904
 2117SOL    HW1 8358  10.615   3.711   3.947
 2117SOL    HW2 8359  10.537   3.838   3.973
 2118SOL     OW 8360   9.685  10.188   6.972
 2118SOL    HW1 8361   9.648  10.261   7.021
 2118SOL    HW2 8362   9.761  10.224   6.927
 2119SOL     OW 8363   3.434   5.382   6.838
 2119SOL    HW1 8364   3.505   5.325   6.869
 2119SOL    HW2 8365   3.450   5.391   6.744
 2120SOL     OW 8366   2.630   0.023   1.546
 2120SOL    HW1 8367   2.577  -0.043   1.501
 2120SOL    HW2 8368   2.589   0.106   1.523
 2121SOL     OW 8369   8.409   6.580   8.297
 2121SOL    HW1 8370   8.409   6.571   8.392
 2121SOL    HW2 8371   8.496   6.614   8.276
 2122SOL     OW 8372  10.269   2.989   7.592
 2122SOL    HW1 8373  10.225   3.071   7.570
 2122SOL    HW2 8374  10.304   3.003   7.680
 2123SOL     OW 8375   7.218   6.627   6.860
 2123SOL    HW1 8376   7.259   6.627   6.773
 2123SOL    HW2 8377   7.278   6.576   6.915
 2124SOL     OW 8378   2.051   5.380   8.757
 2124SOL    HW1 8379   2.136   5.337   8.753
 2124SOL    HW2 8380   2.019   5.362   8.845
 2125SOL     OW 8381   1.782   3.715   6.260
 2125SOL    HW1 8382   1.758   3.681   6.346
 2125SOL    HW2 8383   1.871   3.747   6.271
 2126SOL     OW 8384   5.147   0.162   6.838
 2126SOL    HW1 8385   5.168   0.097   6.770
 2126SOL    HW2 8386   5.069   0.127   6.881
 2127SOL     OW 8387   3.801   2.823   8.490
 2127SOL    HW1 8388   3.746   2.889   8.531
 2127SOL    HW2 8389   3.789   2.837   8.396
 2128SOL     OW 8390   0.925   8.798   5.548
 2128SOL    HW1 8391   0.849   8.818   5.602
 2128SOL    HW2 8392   0.995   8.852   5.584
 2129SOL     OW 8393   2.928  10.865   8.037
 2129SOL    HW1 8394   2.978  10.784   8.043
 2129SOL    HW2 8395   2.854  10.843   7.980
 2130SOL     OW 8396   2.729   8.048   9.036
 2130SOL    HW1 8397   2.823   8.044   9.055
 2130SOL    HW2 8398   2.689   8.079   9.117
 2131SOL     OW 8399   7.297   1.620  10.571
 2131SOL    HW1 8400   7.371   1.570  10.535
 2131SOL    HW2 8401   7.223   1.595  10.516
 2132SOL     OW 8402   9.127   0.009   9.705
 2132SOL    HW1 8403   9.083  -0.048   9.642
 2132SOL    HW2 8404   9.215   0.019   9.669
 2133SOL     OW 8405  11.076   1.553   6.479
 2133SOL    HW1 8406  11.019   1.626   6.503
 2133SOL    HW2 8407  11.162   1.593   6.463
 2134SOL     OW 8408  10.444   1.627   9.323
 2134SOL    HW1 8409  10.475   1.650   9.410
 2134SOL    HW2 8410  10.461   1.705   9.270
 2135SOL     OW 8411   0.366   6.537   3.453
 2135SOL    HW1 8412   0.351   6.523   3.546
 2135SOL    HW2 8413   0.426   6.611   3.449
 2136SOL     OW 8414   1.418  10.781   1.996
 2136SOL    HW1 8415   1.340  10.728   2.010
 2136SOL    HW2 8416   1.487  10.717   1.978
 2137SOL     OW 8417   1.884   1.038   3.816
 2137SOL    HW1 8418   1.901   1.015   3.724
 2137SOL    HW2 8419   1.812   1.100   3.812
 2138SOL     OW 8420   3.560   5.797   4.174
 2138SOL    HW1 8421   3.625   5.809   4.243
 2138SOL    HW2 8422   3.611   5.793   4.093
 2139SOL     OW 8423   5.094   9.664   3.396
 2139SOL    HW1 8424   5.026   9.617   3.444
 2139SOL    HW2 8425   5.165   9.674   3.459
 2140SOL     OW 8426   0.274   0.716   4.452
 2140SOL    HW1 8427   0.188   0.749   4.477
 2140SOL    HW2 8428   0.331   0.793   4.454
 2141SOL     OW 8429   3.929   6.529   4.829
 2141SOL    HW1 8430   3.972   6.608   4.796
 2141SOL    HW2 8431   3.874   6.560   4.901
 2142SOL     OW 8432   8.994   2.963   9.887
 2142SOL    HW1 8433   8.920   3.021   9.901
 2142SOL    HW2 8434   8.962   2.876   9.912
 2143SOL     OW 8435   3.432   9.974   7.793
 2143SOL    HW1 8436   3.349  10.008   7.827
 2143SOL    HW2 8437   3.458   9.906   7.855
 2144SOL     OW 8438   3.732   0.079   9.036
 2144SOL    HW1 8439   3.645   0.041   9.047
 2144SOL    HW2 8440   3.737   0.102   8.943
 2145SOL     OW 8441   7.674   5.218   6.355
 2145SOL    HW1 8442   7.704   5.213   6.264
 2145SOL    HW2 8443   7.587   5.257   6.349
 2146SOL     OW 8444   5.058   9.742   4.003
 2146SOL    HW1 8445   5.079   9.833   3.984
 2146SOL    HW2 8446   5.060   9.699   3.917
 2147SOL     OW 8447   5.739   7.640   1.101
 2147SOL    HW1 8448   5.746   7.710   1.166
 2147SOL    HW2 8449   5.824   7.639   1.057
 2148SOL     OW 8450  11.069   4.630   5.210
 2148SOL    HW1 8451  11.104   4.593   5.291
 2148SOL    HW2 8452  11.041   4.718   5.233
 2149SOL     OW 8453   1.777   4.133   7.863
 2149SOL    HW1 8454   1.852   4.087   7.824
 2149SOL    HW2 8455   1.753   4.079   7.938
 2150SOL     OW 8456   0.698   7.072   0.615
 2150SOL    HW1 8457   0.745   6.998   0.653
 2150SOL    HW2 8458   0.638   7.101   0.683
 2151SOL     OW 8459   2.011   3.863   0.298
 2151SOL    HW1 8460   1.975   3.908   0.374
 2151SOL    HW2 8461   2.079   3.922   0.265
 2152SOL     OW 8462   6.009   8.722   7.618
 2152SOL    HW1 8463   6.065   8.770   7.679
 2152SOL    HW2 8464   6.039   8.749   7.531
 2153SOL     OW 8465   6.381   3.934   2.977
 2153SOL    HW1 8466   6.357   3.995   3.046
 2153SOL    HW2 8467   6.402   3.853   3.023
 2154SOL     OW 8468  11.078   4.293   9.214
 2154SOL    HW1 8469  11.118   4.293   9.301
 2154SOL    HW2 8470  11.038   4.379   9.205
 2155SOL     OW 8471   5.986   2.692   3.018
 2155SOL    HW1 8472   6.020   2.621   2.962
 2155SOL    HW2 8473   6.056   2.757   3.019
 2156SOL     OW 8474   3.022   7.592   9.164
 2156SOL    HW1 8475   3.092   7.550   9.114
 2156SOL    HW2 8476   3.006   7.674   9.118
 2157SOL     OW 8477   1.237   2.804   6.847
 2157SOL    HW1 8478   1.309   2.866   6.860
 2157SOL    HW2 8479   1.247   2.774   6.756
 2158SOL     OW 8480   0.706   1.142   6.949
 2158SOL    HW1 8481   0.707   1.053   6.984
 2158SOL    HW2 8482   0.771   1.189   7.001
 2159SOL     OW 8483   7.962   2.966   5.002
 2159SOL    HW1 8484   7.893   3.026   5.029
 2159SOL    HW2 8485   7.921   2.912   4.934
 2160SOL     OW 8486   4.421   2.949   3.346
 2160SOL    HW1 8487   4.383   2.861   3.342
 2160SOL    HW2 8488   4.407   2.985   3.258
 2161SOL     OW 8489   3.252   5.217   8.234
 2161SOL    HW1 8490   3.158   5.218   8.219
 2161SOL    HW2 8491   3.278   5.127   8.214
 2162SOL     OW 8492   0.220   1.849   9.199
 2162SOL    HW1 8493   0.125   1.855   9.184
 2162SOL    HW2 8494   0.247   1.939   9.217
 2163SOL     OW 8495   3.245   3.980   2.740
 2163SOL    HW1 8496   3.181   4.019   2.680
 2163SOL    HW2 8497   3.308   3.936   2.682
 2164SOL     OW 8498   4.564   9.696   5.577
 2164SOL    HW1 8499   4.542   9.614   5.621
 2164SOL    HW2 8500   4.645   9.676   5.529
 2165SOL     OW 8501   2.902   2.920   2.967
 2165SOL    HW1 8502   2.987   2.875   2.971
 2165SOL    HW2 8503   2.921   3.010   2.992
 2166SOL     OW 8504   5.205   1.034   6.856
 2166SOL    HW1 8505   5.137   1.006   6.917
 2166SOL    HW2 8506   5.245   1.110   6.897
 2167SOL     OW 8507   8.553   6.809  10.689
 2167SOL    HW1 8508   8.645   6.804  10.663
 2167SOL    HW2 8509   8.520   6.888  10.646
 2168SOL     OW 8510   8.532   2.628   1.859
 2168SOL    HW1 8511   8.537   2.585   1.773
 2168SOL    HW2 8512   8.457   2.686   1.852
 2169SOL     OW 8513   1.556   1.891   8.361
 2169SOL    HW1 8514   1.510   1.889   8.445
 2169SOL    HW2 8515   1.606   1.809   8.359
 2170SOL     OW 8516   6.427   1.569   2.868
 2170SOL    HW1 8517   6.332   1.569   2.880
 2170SOL    HW2 8518   6.442   1.502   2.801
 2171SOL     OW 8519   3.939   2.867   5.698
 2171SOL    HW1 8520   3.954   2.872   5.792
 2171SOL    HW2 8521   3.888   2.945   5.677
 2172SOL     OW 8522   2.957   5.720   4.638
 2172SOL    HW1 8523   3.052   5.710   4.649
 2172SOL    HW2 8524   2.923   5.731   4.727
 2173SOL     OW 8525   7.941   8.553   8.138
 2173SOL    HW1 8526   7.846   8.554   8.127
 2173SOL    HW2 8527   7.963   8.641   8.168
 2174SOL     OW 8528   6.702   3.225   2.811
 2174SOL    HW1 8529   6.704   3.260   2.900
 2174SOL    HW2 8530   6.638   3.279   2.765
 2175SOL     OW 8531   8.789   5.660   4.131
 2175SOL    HW1 8532   8.754   5.748   4.118
 2175SOL    HW2 8533   8.712   5.605   4.147
 2176SOL     OW 8534   9.934   2.054  10.036
 2176SOL    HW1 8535   9.948   1.971  10.081
 2176SOL    HW2 8536   9.992   2.049   9.960
 2177SOL     OW 8537   4.402   6.985   8.959
 2177SOL    HW1 8538   4.474   7.047   8.969
 2177SOL    HW2 8539   4.429   6.929   8.885
 2178SOL     OW 8540   4.832   0.545   4.621
 2178SOL    HW1 8541   4.865   0.533   4.532
 2178SOL    HW2 8542   4.815   0.639   4.628
 2179SOL     OW 8543   8.322   4.705  10.413
 2179SOL    HW1 8544   8.408   4.747  10.407
 2179SOL    HW2 8545   8.328   4.630  10.354
 2180SOL     OW 8546   3.868   4.859   8.642
 2180SOL    HW1 8547   3.796   4.855   8.705
 2180SOL    HW2 8548   3.861   4.946   8.603
 2181SOL     OW 8549   4.011   1.976   8.827
 2181SOL    HW1 8550   4.037   1.924   8.750
 2181SOL    HW2 8551   4.039   1.923   8.901
 2182SOL     OW 8552   1.277   9.448   8.824
 2182SOL    HW1 8553   1.317   9.514   8.768
 2182SOL    HW2 8554   1.311   9.466   8.911
 2183SOL     OW 8555   0.371   8.972   3.616
 2183SOL    HW1 8556   0.290   8.967   3.667
 2183SOL    HW2 8557   0.418   8.892   3.638
 2184SOL     OW 8558   5.849   0.733   6.873
 2184SOL    HW1 8559   5.819   0.649   6.838
 2184SOL    HW2 8560   5.797   0.798   6.826
 2185SOL     OW 8561   6.363   2.991  11.001
 2185SOL    HW1 8562   6.306   2.946  10.939
 2185SOL    HW2 8563   6.420   3.045  10.946
 2186SOL     OW 8564   2.909   9.513   4.243
 2186SOL    HW1 8565   2.952   9.430   4.221
 2186SOL    HW2 8566   2.962   9.580   4.199
 2187SOL     OW 8567   4.548   3.531   8.553
 2187SOL    HW1 8568   4.589   3.449   8.523
 2187SOL    HW2 8569   4.521   3.575   8.472
 2188SOL     OW 8570   1.543   9.234   4.677
 2188SOL    HW1 8571   1.625   9.264   4.638
 2188SOL    HW2 8572   1.552   9.252   4.770
 2189SOL     OW 8573  10.660   0.302   3.821
 2189SOL    HW1 8574  10.643   0.208   3.812
 2189SOL    HW2 8575  10.584   0.344   3.781
 2190SOL     OW 8576   2.689   1.257   5.640
 2190SOL    HW1 8577   2.622   1.292   5.698
 2190SOL    HW2 8578   2.766   1.312   5.655
 2191SOL     OW 8579   2.491   8.802   5.722
 2191SOL    HW1 8580   2.488   8.706   5.716
 2191SOL    HW2 8581   2.582   8.824   5.702
 2192SOL     OW 8582   8.709   4.087   0.624
 2192SOL    HW1 8583   8.724   4.030   0.699
 2192SOL    HW2 8584   8.792   4.085   0.576
 2193SOL     OW 8585   1.083   2.307   6.870
 2193SOL    HW1 8586   1.046   2.290   6.783
 2193SOL    HW2 8587   1.176   2.323   6.853
 2194SOL     OW 8588   2.641   0.467   2.415
 2194SOL    HW1 8589   2.600   0.469   2.501
 2194SOL    HW2 8590   2.726   0.509   2.428
 2195SOL     OW 8591   1.284   7.610   7.260
 2195SOL    HW1 8592   1.336   7.581   7.335
 2195SOL    HW2 8593   1.262   7.529   7.213
 2196SOL     OW 8594   4.591   5.717   0.109
 2196SOL    HW1 8595   4.619   5.754   0.193
 2196SOL    HW2 8596   4.503   5.751   0.096
 2197SOL     OW 8597  10.339   1.728   8.517
 2197SOL    HW1 8598  10.249   1.748   8.494
 2197SOL    HW2 8599  10.349   1.635   8.496
 2198SOL     OW 8600   5.380   9.952   4.961
 2198SOL    HW1 8601   5.343  10.032   4.923
 2198SOL    HW2 8602   5.432   9.982   5.035
 2199SOL     OW 8603   1.797  10.049   5.924
 2199SOL    HW1 8604   1.836  10.011   5.845
 2199SOL    HW2 8605   1.826  10.140   5.923
 2200SOL     OW 8606  10.927   9.975   2.079
 2200SOL    HW1 8607  10.841   9.934   2.080
 2200SOL    HW2 8608  10.909  10.069   2.079
 2201SOL     OW 8609   3.835   8.010  10.515
 2201SOL    HW1 8610   3.877   7.943  10.461
 2201SOL    HW2 8611   3.791   7.960  10.584
 2202SOL     OW 8612   3.452   2.912   9.926
 2202SOL    HW1 8613   3.430   2.932  10.017
 2202SOL    HW2 8614   3.509   2.984   9.899
 2203SOL     OW 8615   2.205   5.057  10.205
 2203SOL    HW1 8616   2.157   5.119  10.259
 2203SOL    HW2 8617   2.296   5.086  10.209
 2204SOL     OW 8618   0.233   0.213   4.347
 2204SOL    HW1 8619   0.258   0.121   4.354
 2204SOL    HW2 8620   0.153   0.211   4.294
 2205SOL     OW 8621   8.322   8.312   7.411
 2205SOL    HW1 8622   8.228   8.329   7.405
 2205SOL    HW2 8623   8.352   8.367   7.483
 2206SOL     OW 8624  10.674  10.333   4.383
 2206SOL    HW1 8625  10.598  10.298   4.336
 2206SOL    HW2 8626  10.641  10.410   4.429
 2207SOL     OW 8627   4.745   4.008   8.247
 2207SOL    HW1 8628   4.738   3.919   8.212
 2207SOL    HW2 8629   4.731   4.064   8.171
 2208SOL     OW 8630   5.496   6.867   5.485
 2208SOL    HW1 8631   5.492   6.882   5.390
 2208SOL    HW2 8632   5.512   6.773   5.493
 2209SOL     OW 8633   7.060   1.698   7.410
 2209SOL    HW1 8634   7.066   1.792   7.392
 2209SOL    HW2 8635   6.998   1.691   7.482
 2210SOL     OW 8636   4.874   6.059   7.721
 2210SOL    HW1 8637   4.845   6.109   7.645
 2210SOL    HW2 8638   4.913   5.980   7.683
 2211SOL     OW 8639   1.285   2.201   2.059
 2211SOL    HW1 8640   1.242   2.252   2.127
 2211SOL    HW2 8641   1.314   2.266   1.995
 2212SOL     OW 8642   1.093   5.646   6.534
 2212SOL    HW1 8643   1.103   5.715   6.469
 2212SOL    HW2 8644   1.173   5.651   6.587
 2213SOL     OW 8645   3.874   7.985   1.899
 2213SOL    HW1 8646   3.797   8.022   1.941
 2213SOL    HW2 8647   3.898   8.049   1.832
 2214SOL     OW 8648   4.488   1.446   6.720
 2214SOL    HW1 8649   4.475   1.440   6.625
 2214SOL    HW2 8650   4.409   1.407   6.757
 2215SOL     OW 8651  10.261   4.793   9.804
 2215SOL    HW1 8652  10.349   4.757   9.816
 2215SOL    HW2 8653  10.203   4.728   9.844
 2216SOL     OW 8654   0.197  10.414   0.343
 2216SOL    HW1 8655   0.208  10.462   0.261
 2216SOL    HW2 8656   0.131  10.464   0.391
 2217SOL     OW 8657   9.570   4.387  10.011
 2217SOL    HW1 8658   9.488   4.340   9.997
 2217SOL    HW2 8659   9.545   4.464  10.061
 2218SOL     OW 8660   0.632   1.079   2.006
 2218SOL    HW1 8661   0.564   1.017   1.979
 2218SOL    HW2 8662   0.693   1.026   2.057
 2219SOL     OW 8663   1.087   1.142   8.572
 2219SOL    HW1 8664   0.996   1.171   8.567
 2219SOL    HW2 8665   1.132   1.190   8.502
 2220SOL     OW 8666   0.330   9.919   1.732
 2220SOL    HW1 8667   0.313   9.980   1.660
 2220SOL    HW2 8668   0.425   9.920   1.742
 2221SOL     OW 8669   0.617   0.245  10.436
 2221SOL    HW1 8670   0.547   0.187  10.405
 2221SOL    HW2 8671   0.690   0.227  10.376
 2222SOL     OW 8672   0.972   3.215   6.756
 2222SOL    HW1 8673   0.992   3.121   6.759
 2222SOL    HW2 8674   1.024   3.253   6.827
 2223SOL     OW 8675   0.790   8.980   6.137
 2223SOL    HW1 8676   0.773   9.056   6.192
 2223SOL    HW2 8677   0.845   8.923   6.190
 2224SOL     OW 8678   3.231   1.458  10.962
 2224SOL    HW1 8679   3.260   1.519  10.894
 2224SOL    HW2 8680   3.281   1.482  11.040
 2225SOL     OW 8681   2.171   8.795   7.138
 2225SOL    HW1 8682   2.240   8.842   7.092
 2225SOL    HW2 8683   2.206   8.780   7.225
 2226SOL     OW 8684   6.039   7.205   0.597
 2226SOL    HW1 8685   6.085   7.219   0.680
 2226SOL    HW2 8686   6.044   7.110   0.583
 2227SOL     OW 8687   4.926   8.208   8.246
 2227SOL    HW1 8688   4.928   8.282   8.185
 2227SOL    HW2 8689   4.969   8.137   8.198
 2228SOL     OW 8690   5.308   7.835   1.440
 2228SOL    HW1 8691   5.341   7.777   1.509
 2228SOL    HW2 8692   5.273   7.775   1.373
 2229SOL     OW 8693   3.712   6.701   1.327
 2229SOL    HW1 8694   3.723   6.678   1.419
 2229SOL    HW2 8695   3.775   6.772   1.312
 2230SOL     OW 8696   9.438   3.192   7.958
 2230SOL    HW1 8697   9.408   3.103   7.979
 2230SOL    HW2 8698   9.420   3.202   7.864
 2231SOL     OW 8699   0.173   3.184   2.223
 2231SOL    HW1 8700   0.129   3.239   2.288
 2231SOL    HW2 8701   0.262   3.218   2.218
 2232SOL     OW 8702   7.599   2.691   1.739
 2232SOL    HW1 8703   7.562   2.762   1.687
 2232SOL    HW2 8704   7.524   2.651   1.782
 2233SOL     OW 8705   2.585   7.775   6.431
 2233SOL    HW1 8706   2.549   7.747   6.346
 2233SOL    HW2 8707   2.639   7.851   6.410
 2234SOL     OW 8708   7.069   8.750   7.091
 2234SOL    HW1 8709   7.054   8.842   7.069
 2234SOL    HW2 8710   7.146   8.725   7.040
 2235SOL     OW 8711   4.703   5.986   9.016
 2235SOL    HW1 8712   4.620   6.032   9.011
 2235SOL    HW2 8713   4.688   5.905   8.967
 2236SOL     OW 8714  10.686  10.664   5.259
 2236SOL    HW1 8715  10.663  10.639   5.348
 2236SOL    HW2 8716  10.644  10.749   5.246
 2237SOL     OW 8717   2.351   3.642   1.763
 2237SOL    HW1 8718   2.332   3.591   1.684
 2237SOL    HW2 8719   2.267   3.647   1.809
 2238SOL     OW 8720   0.651   8.664   5.690
 2238SOL    HW1 8721   0.584   8.684   5.755
 2238SOL    HW2 8722   0.718   8.615   5.738
 2239SOL     OW 8723   7.012   8.818   1.890
 2239SOL    HW1 8724   7.067   8.867   1.951
 2239SOL    HW2 8725   7.064   8.740   1.868
 2240SOL     OW 8726   5.471   0.001   3.327
 2240SOL    HW1 8727   5.555   0.006   3.372
 2240SOL    HW2 8728   5.493   0.013   3.234
 2241SOL     OW 8729   7.596   8.327   1.586
 2241SOL    HW1 8730   7.506   8.304   1.609
 2241SOL    HW2 8731   7.603   8.420   1.606
 2242SOL     OW 8732  10.885   6.294   9.055
 2242SOL    HW1 8733  10.917   6.363   8.997
 2242SOL    HW2 8734  10.812   6.255   9.006
 2243SOL     OW 8735   0.503  10.855   9.346
 2243SOL    HW1 8736   0.458  10.771   9.338
 2243SOL    HW2 8737   0.532  10.875   9.257
 2244SOL     OW 8738  10.357   1.651   5.622
 2244SOL    HW1 8739  10.372   1.557   5.613
 2244SOL    HW2 8740  10.440   1.691   5.596
 2245SOL     OW 8741   6.127   8.285   2.400
 2245SOL    HW1 8742   6.041   8.256   2.370
 2245SOL    HW2 8743   6.109   8.351   2.467
 2246SOL     OW 8744   0.479  11.106   9.213
 2246SOL    HW1 8745   0.529  11.028   9.189
 2246SOL    HW2 8746   0.393  11.072   9.238
 2247SOL     OW 8747   2.988   1.529   4.748
 2247SOL    HW1 8748   3.057   1.585   4.784
 2247SOL    HW2 8749   2.974   1.562   4.659
 2248SOL     OW 8750   4.885   5.778  10.888
 2248SOL    HW1 8751   4.877   5.760  10.981
 2248SOL    HW2 8752   4.905   5.693  10.849
 2249SOL     OW 8753   2.603   0.374   9.806
 2249SOL    HW1 8754   2.574   0.357   9.716
 2249SOL    HW2 8755   2.675   0.312   9.820
 2250SOL     OW 8756   5.107   7.677   9.151
 2250SOL    HW1 8757   5.086   7.652   9.241
 2250SOL    HW2 8758   5.031   7.649   9.099
 2251SOL     OW 8759   0.828   3.285   4.167
 2251SOL    HW1 8760   0.915   3.325   4.170
 2251SOL    HW2 8761   0.845   3.192   4.183
 2252SOL     OW 8762   0.635   8.946   8.984
 2252SOL    HW1 8763   0.722   8.943   8.945
 2252SOL    HW2 8764   0.631   8.868   9.040
 2253SOL     OW 8765   8.260   2.821   6.175
 2253SOL    HW1 8766   8.210   2.879   6.233
 2253SOL    HW2 8767   8.194   2.778   6.120
 2254SOL     OW 8768   3.352   6.211   7.997
 2254SOL    HW1 8769   3.446   6.197   8.007
 2254SOL    HW2 8770   3.312   6.132   8.033
 2255SOL     OW 8771  11.019   3.971   6.901
 2255SOL    HW1 8772  11.007   3.876   6.892
 2255SOL    HW2 8773  10.931   4.005   6.917
 2256SOL     OW 8774  10.652   7.012  10.501
 2256SOL    HW1 8775  10.690   7.031  10.415
 2256SOL    HW2 8776  10.614   7.095  10.530
 2257SOL     OW 8777   3.290   5.917   4.368
 2257SOL    HW1 8778   3.378   5.954   4.376
 2257SOL    HW2 8779   3.305   5.828   4.336
 2258SOL     OW 8780   2.302  10.216   4.170
 2258SOL    HW1 8781   2.322  10.184   4.258
 2258SOL    HW2 8782   2.384  10.255   4.139
 2259SOL     OW 8783   3.241   1.256   1.426
 2259SOL    HW1 8784   3.239   1.196   1.500
 2259SOL    HW2 8785   3.332   1.286   1.422
 2260SOL     OW 8786   2.671   6.518   8.701
 2260SOL    HW1 8787   2.689   6.437   8.652
 2260SOL    HW2 8788   2.729   6.513   8.777
 2261SOL     OW 8789   2.771   1.058   8.206
 2261SOL    HW1 8790   2.777   1.136   8.261
 2261SOL    HW2 8791   2.807   0.987   8.260
 2262SOL     OW 8792   1.595   8.837   4.867
 2262SOL    HW1 8793   1.671   8.780   4.853
 2262SOL    HW2 8794   1.589   8.888   4.786
 2263SOL     OW 8795   2.160   7.976   8.371
 2263SOL    HW1 8796   2.188   7.990   8.461
 2263SOL    HW2 8797   2.226   8.020   8.318
 2264SOL     OW 8798   9.400   7.728   8.953
 2264SOL    HW1 8799   9.494   7.738   8.938
 2264SOL    HW2 8800   9.361   7.740   8.866
 2265SOL     OW 8801   1.143   6.019   3.947
 2265SOL    HW1 8802   1.197   6.037   4.024
 2265SOL    HW2 8803   1.121   5.926   3.955
 2266SOL     OW 8804   4.357   2.053   9.594
 2266SOL    HW1 8805   4.393   2.082   9.678
 2266SOL    HW2 8806   4.336   2.134   9.547
 2267SOL     OW 8807   1.729  10.010   1.099
 2267SOL    HW1 8808   1.815   9.968   1.097
 2267SOL    HW2 8809   1.695   9.991   1.186
 2268SOL     OW 8810   9.185   2.159   3.216
 2268SOL    HW1 8811   9.142   2.125   3.294
 2268SOL    HW2 8812   9.244   2.227   3.248
 2269SOL     OW 8813   7.324   1.355   9.391
 2269SOL    HW1 8814   7.280   1.337   9.474
 2269SOL    HW2 8815   7.394   1.289   9.386
 2270SOL     OW 8816   1.846   0.802   0.785
 2270SOL    HW1 8817   1.825   0.766   0.698
 2270SOL    HW2 8818   1.770   0.856   0.807
 2271SOL     OW 8819   1.944   3.174   2.119
 2271SOL    HW1 8820   2.031   3.135   2.126
 2271SOL    HW2 8821   1.900   3.149   2.200
 2272SOL     OW 8822   0.942   8.781   8.509
 2272SOL    HW1 8823   0.870   8.804   8.450
 2272SOL    HW2 8824   0.947   8.685   8.504
 2273SOL     OW 8825   8.875   7.546   7.733
 2273SOL    HW1 8826   8.882   7.537   7.828
 2273SOL    HW2 8827   8.786   7.578   7.718
 2274SOL     OW 8828   0.813   0.182   7.310
 2274SOL    HW1 8829   0.857   0.233   7.378
 2274SOL    HW2 8830   0.823   0.234   7.230
 2275SOL     OW 8831   2.031   2.236   1.517
 2275SOL    HW1 8832   2.055   2.144   1.529
 2275SOL    HW2 8833   2.070   2.259   1.432
 2276SOL     OW 8834   1.206  10.498   8.854
 2276SOL    HW1 8835   1.227  10.507   8.947
 2276SOL    HW2 8836   1.141  10.566   8.837
 2277SOL     OW 8837   2.483   0.607   8.864
 2277SOL    HW1 8838   2.496   0.581   8.772
 2277SOL    HW2 8839   2.393   0.638   8.867
 2278SOL     OW 8840   2.251   4.858   3.512
 2278SOL    HW1 8841   2.254   4.778   3.459
 2278SOL    HW2 8842   2.165   4.856   3.554
 2279SOL     OW 8843   2.713   8.239   7.932
 2279SOL    HW1 8844   2.784   8.284   7.978
 2279SOL    HW2 8845   2.633   8.277   7.967
 2280SOL     OW 8846   7.207   8.584   5.472
 2280SOL    HW1 8847   7.263   8.645   5.519
 2280SOL    HW2 8848   7.176   8.523   5.539
 2281SOL     OW 8849   6.709  10.642  10.054
 2281SOL    HW1 8850   6.721  10.647   9.959
 2281SOL    HW2 8851   6.792  10.673  10.089
 2282SOL     OW 8852   9.220   4.163   6.107
 2282SOL    HW1 8853   9.279   4.147   6.180
 2282SOL    HW2 8854   9.231   4.086   6.051
 2283SOL     OW 8855   1.720   9.944  10.998
 2283SOL    HW1 8856   1.807   9.943  10.957
 2283SOL    HW2 8857   1.730  10.001  11.074
 2284SOL     OW 8858   3.623   8.853   6.356
 2284SOL    HW1 8859   3.531   8.860   6.330
 2284SOL    HW2 8860   3.672   8.884   6.279
 2285SOL     OW 8861   9.302   6.257   3.038
 2285SOL    HW1 8862   9.381   6.230   3.085
 2285SOL    HW2 8863   9.267   6.330   3.089
 2286SOL     OW 8864   9.077   3.124   5.733
 2286SOL    HW1 8865   9.151   3.185   5.737
 2286SOL    HW2 8866   9.045   3.131   5.643
 2287SOL     OW 8867   9.677   0.896   5.279
 2287SOL    HW1 8868   9.626   0.880   5.358
 2287SOL    HW2 8869   9.732   0.971   5.301
 2288SOL     OW 8870   9.897   1.914   3.605
 2288SOL    HW1 8871   9.945   1.909   3.687
 2288SOL    HW2 8872   9.890   2.007   3.586
 2289SOL     OW 8873   0.047  10.232   7.537
 2289SOL    HW1 8874  -0.026  10.194   7.487
 2289SOL    HW2 8875   0.090  10.291   7.475
 2290SOL     OW 8876   5.024   8.748   0.664
 2290SOL    HW1 8877   5.012   8.676   0.601
 2290SOL    HW2 8878   4.951   8.807   0.647
 2291SOL     OW 8879   1.152   1.916   5.548
 2291SOL    HW1 8880   1.151   1.860   5.625
 2291SOL    HW2 8881   1.063   1.949   5.541
 2292SOL     OW 8882   5.456   8.176   5.706
 2292SOL    HW1 8883   5.424   8.091   5.736
 2292SOL    HW2 8884   5.406   8.239   5.756
 2293SOL     OW 8885   2.156   3.751   1.476
 2293SOL    HW1 8886   2.154   3.674   1.533
 2293SOL    HW2 8887   2.119   3.822   1.528
 2294SOL     OW 8888   9.881   5.339   6.800
 2294SOL    HW1 8889   9.931   5.305   6.725
 2294SOL    HW2 8890   9.946   5.353   6.868
 2295SOL     OW 8891   7.120   2.692   6.302
 2295SOL    HW1 8892   7.166   2.757   6.249
 2295SOL    HW2 8893   7.040   2.736   6.331
 2296SOL     OW 8894   1.687   0.037   8.952
 2296SOL    HW1 8895   1.593   0.050   8.966
 2296SOL    HW2 8896   1.699   0.052   8.858
 2297SOL     OW 8897   1.245   9.518   3.306
 2297SOL    HW1 8898   1.313   9.475   3.254
 2297SOL    HW2 8899   1.204   9.579   3.245
 2298SOL     OW 8900   3.281   7.833   5.469
 2298SOL    HW1 8901   3.234   7.889   5.407
 2298SOL    HW2 8902   3.367   7.874   5.478
 2299SOL     OW 8903   4.497   2.518   7.961
 2299SOL    HW1 8904   4.562   2.516   8.031
 2299SOL    HW2 8905   4.504   2.432   7.920
 2300SOL     OW 8906   2.145   3.067   6.166
 2300SOL    HW1 8907   2.129   2.990   6.111
 2300SOL    HW2 8908   2.113   3.140   6.113
 2301SOL     OW 8909   4.538  10.890   7.004
 2301SOL    HW1 8910   4.494  10.843   6.933
 2301SOL    HW2 8911   4.518  10.839   7.082
 2302SOL     OW 8912   9.420   2.121   2.795
 2302SOL    HW1 8913   9.431   2.027   2.811
 2302SOL    HW2 8914   9.433   2.130   2.700
 2303SOL     OW 8915   3.894   6.830   7.573
 2303SOL    HW1 8916   3.947   6.825   7.493
 2303SOL    HW2 8917   3.849   6.745   7.576
 2304SOL     OW 8918  10.110   5.190  10.994
 2304SOL    HW1 8919  10.039   5.236  11.039
 2304SOL    HW2 8920  10.067   5.144  10.921
 2305SOL     OW 8921   2.136   7.351   8.739
 2305SOL    HW1 8922   2.111   7.443   8.740
 2305SOL    HW2 8923   2.135   7.325   8.831
 2306SOL     OW 8924   3.008   0.054   2.984
 2306SOL    HW1 8925   2.952  -0.023   2.989
 2306SOL    HW2 8926   2.975   0.102   2.908
 2307SOL     OW 8927   6.995   1.163   3.692
 2307SOL    HW1 8928   6.944   1.151   3.611
 2307SOL    HW2 8929   7.007   1.257   3.699
 2308SOL     OW 8930   7.728   0.934   2.982
 2308SOL    HW1 8931   7.770   0.922   2.897
 2308SOL    HW2 8932   7.711   0.845   3.013
 2309SOL     OW 8933   9.454   1.110   8.942
 2309SOL    HW1 8934   9.396   1.169   8.894
 2309SOL    HW2 8935   9.531   1.100   8.885
 2310SOL     OW 8936   5.372  11.039   2.622
 2310SOL    HW1 8937   5.328  10.982   2.685
 2310SOL    HW2 8938   5.374  10.988   2.541
 2311SOL     OW 8939  10.600  10.341   0.699
 2311SOL    HW1 8940  10.556  10.404   0.642
 2311SOL    HW2 8941  10.659  10.293   0.640
 2312SOL     OW 8942   2.619   8.849   7.926
 2312SOL    HW1 8943   2.588   8.852   7.835
 2312SOL    HW2 8944   2.681   8.776   7.928
 2313SOL     OW 8945  10.113   6.230   5.537
 2313SOL    HW1 8946  10.151   6.153   5.580
 2313SOL    HW2 8947  10.188   6.286   5.517
 2314SOL     OW 8948   8.790   1.306   9.895
 2314SOL    HW1 8949   8.749   1.257   9.966
 2314SOL    HW2 8950   8.799   1.395   9.929
 2315SOL     OW 8951   3.628   8.068   4.966
 2315SOL    HW1 8952   3.613   8.105   5.053
 2315SOL    HW2 8953   3.720   8.040   4.967
 2316SOL     OW 8954  11.025   7.426   6.546
 2316SOL    HW1 8955  11.045   7.516   6.572
 2316SOL    HW2 8956  11.103   7.376   6.571
 2317SOL     OW 8957   6.951   8.737   0.417
 2317SOL    HW1 8958   7.030   8.737   0.471
 2317SOL    HW2 8959   6.983   8.720   0.328
 2318SOL     OW 8960   3.685   0.014   6.616
 2318SOL    HW1 8961   3.682   0.060   6.700
 2318SOL    HW2 8962   3.772  -0.026   6.614
 2319SOL     OW 8963  10.978   8.994   1.817
 2319SOL    HW1 8964  10.991   9.057   1.746
 2319SOL    HW2 8965  11.024   9.031   1.892
 2320SOL     OW 8966   9.619   9.381   0.374
 2320SOL    HW1 8967   9.531   9.411   0.351
 2320SOL    HW2 8968   9.677   9.451   0.344
 2321SOL     OW 8969   3.164   6.898  10.378
 2321SOL    HW1 8970   3.140   6.805  10.373
 2321SOL    HW2 8971   3.230   6.902  10.447
 2322SOL     OW 8972   4.437   7.776   3.042
 2322SOL    HW1 8973   4.511   7.753   3.098
 2322SOL    HW2 8974   4.384   7.696   3.039
 2323SOL     OW 8975   8.862   4.421   6.124
 2323SOL    HW1 8976   8.889   4.375   6.044
 2323SOL    HW2 8977   8.937   4.412   6.182
 2324SOL     OW 8978   5.728   7.762  10.386
 2324SOL    HW1 8979   5.670   7.834  10.363
 2324SOL    HW2 8980   5.776   7.793  10.463
 2325SOL     OW 8981   4.852   8.437   4.513
 2325SOL    HW1 8982   4.947   8.443   4.502
 2325SOL    HW2 8983   4.840   8.370   4.580
 2326SOL     OW 8984   4.498   2.825   7.609
 2326SOL    HW1 8985   4.523   2.796   7.696
 2326SOL    HW2 8986   4.471   2.745   7.564
 2327SOL     OW 8987   9.305   2.978  10.659
 2327SOL    HW1 8988   9.374   2.926  10.617
 2327SOL    HW2 8989   9.353   3.045  10.707
 2328SOL     OW 8990   2.055  10.422  10.593
 2328SOL    HW1 8991   1.993  10.402  10.523
 2328SOL    HW2 8992   2.141  10.421  10.550
 2329SOL     OW 8993   1.179   6.262   7.763
 2329SOL    HW1 8994   1.093   6.295   7.787
 2329SOL    HW2 8995   1.239   6.335   7.779
 2330SOL     OW 8996   2.444   1.374   5.505
 2330SOL    HW1 8997   2.532   1.337   5.498
 2330SOL    HW2 8998   2.391   1.322   5.444
 2331SOL     OW 8999   1.759   4.538   4.887
 2331SOL    HW1 9000   1.738   4.566   4.798
 2331SOL    HW2 9001   1.753   4.617   4.940
 2332SOL     OW 9002   6.940   0.216   2.208
 2332SOL    HW1 9003   6.918   0.125   2.230
 2332SOL    HW2 9004   7.024   0.231   2.250
 2333SOL     OW 9005   4.324   7.282   7.360
 2333SOL    HW1 9006   4.291   7.233   7.284
 2333SOL    HW2 9007   4.300   7.373   7.343
 2334SOL     OW 9008   2.578   3.210   9.419
 2334SOL    HW1 9009   2.624   3.239   9.340
 2334SOL    HW2 9010   2.576   3.286   9.476
 2335SOL     OW 9011   9.041   3.663   9.828
 2335SOL    HW1 9012   9.130   3.628   9.824
 2335SOL    HW2 9013   9.052   3.756   9.845
 2336SOL     OW 9014  10.978   6.150   9.558
 2336SOL    HW1 9015  10.937   6.191   9.482
 2336SOL    HW2 9016  11.021   6.072   9.522
 2337SOL     OW 9017   4.997   1.078   1.169
 2337SOL    HW1 9018   5.048   1.068   1.088
 2337SOL    HW2 9019   5.015   1.167   1.197
 2338SOL     OW 9020   1.182   6.178   3.719
 2338SOL    HW1 9021   1.182   6.144   3.808
 2338SOL    HW2 9022   1.234   6.114   3.669
 2339SOL     OW 9023   9.692   4.605   0.010
 2339SOL    HW1 9024   9.727   4.688   0.041
 2339SOL    HW2 9025   9.612   4.628  -0.037
 2340SOL     OW 9026  10.774   1.018   3.892
 2340SOL    HW1 9027  10.853   1.059   3.858
 2340SOL    HW2 9028  10.711   1.090   3.901
 2341SOL     OW 9029  11.096   2.343   2.262
 2341SOL    HW1 9030  11.083   2.411   2.327
 2341SOL    HW2 9031  11.175   2.369   2.215
 2342SOL     OW 9032  10.689   0.455   3.509
 2342SOL    HW1 9033  10.708   0.470   3.416
 2342SOL    HW2 9034  10.758   0.502   3.555
 2343SOL     OW 9035   2.396   5.184   8.905
 2343SOL    HW1 9036   2.462   5.116   8.920
 2343SOL    HW2 9037   2.340   5.181   8.982
 2344SOL     OW 9038   2.999   3.350  10.768
 2344SOL    HW1 9039   2.948   3.422  10.731
 2344SOL    HW2 9040   3.056   3.322  10.696
 2345SOL     OW 9041   5.046   0.486   1.302
 2345SOL    HW1 9042   5.045   0.560   1.361
 2345SOL    HW2 9043   5.139   0.470   1.285
 2346SOL     OW 9044   0.612   6.815   1.323
 2346SOL    HW1 9045   0.564   6.785   1.245
 2346SOL    HW2 9046   0.674   6.879   1.289
 2347SOL     OW 9047   1.193   1.166   8.065
 2347SOL    HW1 9048   1.182   1.234   7.999
 2347SOL    HW2 9049   1.146   1.090   8.029
 2348SOL     OW 9050  10.790   3.966   3.740
 2348SOL    HW1 9051  10.842   4.027   3.792
 2348SOL    HW2 9052  10.699   3.990   3.758
 2349SOL     OW 9053   8.479   1.828   1.132
 2349SOL    HW1 9054   8.559   1.875   1.156
 2349SOL    HW2 9055   8.510   1.744   1.097
 2350SOL     OW 9056  10.257   5.083   4.096
 2350SOL    HW1 9057  10.279   5.158   4.041
 2350SOL    HW2 9058  10.333   5.072   4.153
 2351SOL     OW 9059   1.253   3.699  10.231
 2351SOL    HW1 9060   1.330   3.730  10.183
 2351SOL    HW2 9061   1.271   3.720  10.322
 2352SOL     OW 9062   2.061   4.198   1.627
 2352SOL    HW1 9063   2.094   4.121   1.673
 2352SOL    HW2 9064   1.967   4.198   1.645
 2353SOL     OW 9065  10.149   1.118   5.551
 2353SOL    HW1 9066  10.089   1.144   5.481
 2353SOL    HW2 9067  10.140   1.023   5.556
 2354SOL     OW 9068   1.975   7.715   7.859
 2354SOL    HW1 9069   1.977   7.810   7.864
 2354SOL    HW2 9070   2.009   7.685   7.943
 2355SOL     OW 9071   6.249   9.249   6.254
 2355SOL    HW1 9072   6.289   9.176   6.302
 2355SOL    HW2 9073   6.161   9.257   6.291
 2356SOL     OW 9074   0.523   7.949   1.785
 2356SOL    HW1 9075   0.612   7.914   1.780
 2356SOL    HW2 9076   0.488   7.936   1.697
 2357SOL     OW 9077   2.902  10.583   0.536
 2357SOL    HW1 9078   2.828  10.629   0.496
 2357SOL    HW2 9079   2.971  10.649   0.543
 2358SOL     OW 9080   7.037   3.582  10.615
 2358SOL    HW1 9081   6.966   3.521  10.594
 2358SOL    HW2 9082   7.086   3.538  10.685
 2359SOL     OW 9083  10.615   1.488   0.420
 2359SOL    HW1 9084  10.707   1.481   0.445
 2359SOL    HW2 9085  10.615   1.547   0.344
 2360SOL     OW 9086   5.464   1.070   4.911
 2360SOL    HW1 9087   5.536   1.032   4.962
 2360SOL    HW2 9088   5.478   1.037   4.822
 2361SOL     OW 9089   2.968  10.020   6.461
 2361SOL    HW1 9090   2.947  10.106   6.497
 2361SOL    HW2 9091   2.908  10.010   6.387
 2362SOL     OW 9092  10.425   1.146   7.263
 2362SOL    HW1 9093  10.338   1.110   7.245
 2362SOL    HW2 9094  10.485   1.075   7.239
 2363SOL     OW 9095   0.534   6.523   2.334
 2363SOL    HW1 9096   0.589   6.472   2.273
 2363SOL    HW2 9097   0.540   6.613   2.302
 2364SOL     OW 9098   2.410   3.926   9.728
 2364SOL    HW1 9099   2.487   3.923   9.671
 2364SOL    HW2 9100   2.358   3.999   9.694
 2365SOL     OW 9101   1.772  10.196   6.922
 2365SOL    HW1 9102   1.795  10.218   7.012
 2365SOL    HW2 9103   1.797  10.104   6.912
 2366SOL     OW 9104   2.094  10.600   7.793
 2366SOL    HW1 9105   2.012  10.601   7.842
 2366SOL    HW2 9106   2.158  10.562   7.853
 2367SOL     OW 9107   2.528   5.857   7.664
 2367SOL    HW1 9108   2.454   5.843   7.605
 2367SOL    HW2 9109   2.601   5.880   7.606
 2368SOL     OW 9110   8.150   9.103   2.494
 2368SOL    HW1 9111   8.093   9.176   2.517
 2368SOL    HW2 9112   8.130   9.035   2.558
 2369SOL     OW 9113   1.556   5.274   3.049
 2369SOL    HW1 9114   1.645   5.286   3.081
 2369SOL    HW2 9115   1.551   5.180   3.028
 2370SOL     OW 9116   1.604   0.993  10.899
 2370SOL    HW1 9117   1.683   0.950  10.933
 2370SOL    HW2 9118   1.596   1.073  10.950
 2371SOL     OW 9119   5.550  10.280   8.595
 2371SOL    HW1 9120   5.635  10.273   8.551
 2371SOL    HW2 9121   5.566  10.339   8.668
 2372SOL     OW 9122   2.360  10.332   0.581
 2372SOL    HW1 9123   2.326  10.327   0.670
 2372SOL    HW2 9124   2.455  10.339   0.591
 2373SOL     OW 9125   6.414   8.251   7.960
 2373SOL    HW1 9126   6.331   8.290   7.934
 2373SOL    HW2 9127   6.480   8.303   7.914
 2374SOL     OW 9128   9.465   1.041   0.930
 2374SOL    HW1 9129   9.452   0.946   0.925
 2374SOL    HW2 9130   9.428   1.066   1.014
 2375SOL     OW 9131   7.079   0.908  10.826
 2375SOL    HW1 9132   7.133   0.980  10.859
 2375SOL    HW2 9133   7.093   0.909  10.731
 2376SOL     OW 9134  10.996   2.455   5.029
 2376SOL    HW1 9135  11.017   2.413   5.112
 2376SOL    HW2 9136  10.959   2.539   5.053
 2377SOL     OW 9137   1.684  10.563   1.149
 2377SOL    HW1 9138   1.628  10.488   1.129
 2377SOL    HW2 9139   1.638  10.610   1.218
 2378SOL     OW 9140   7.498   1.695  10.833
 2378SOL    HW1 9141   7.435   1.748  10.785
 2378SOL    HW2 9142   7.474   1.604  10.812
 2379SOL     OW 9143   7.265   8.325   1.227
 2379SOL    HW1 9144   7.192   8.312   1.287
 2379SOL    HW2 9145   7.224   8.349   1.144
 2380SOL     OW 9146   1.123   1.296   6.555
 2380SOL    HW1 9147   1.082   1.363   6.500
 2380SOL    HW2 9148   1.156   1.231   6.492
 2381SOL     OW 9149   3.646   2.940   7.667
 2381SOL    HW1 9150   3.695   2.958   7.747
 2381SOL    HW2 9151   3.595   2.861   7.687
 2382SOL     OW 9152   5.363   4.427   1.525
 2382SOL    HW1 9153   5.292   4.378   1.483
 2382SOL    HW2 9154   5.353   4.409   1.618
 2383SOL     OW 9155   0.752   9.757   9.280
 2383SOL    HW1 9156   0.790   9.809   9.350
 2383SOL    HW2 9157   0.817   9.760   9.210
 2384SOL     OW 9158   4.006   8.249   9.529
 2384SOL    HW1 9159   3.928   8.216   9.573
 2384SOL    HW2 9160   4.073   8.253   9.597
 2385SOL     OW 9161   7.077  11.001   3.181
 2385SOL    HW1 9162   6.997  11.015   3.130
 2385SOL    HW2 9163   7.148  11.030   3.123
 2386SOL     OW 9164   0.636   5.062   7.708
 2386SOL    HW1 9165   0.649   4.969   7.728
 2386SOL    HW2 9166   0.713   5.087   7.657
 2387SOL     OW 9167   9.537   6.161   6.696
 2387SOL    HW1 9168   9.550   6.156   6.790
 2387SOL    HW2 9169   9.510   6.072   6.671
 2388SOL     OW 9170  10.869   6.953   9.912
 2388SOL    HW1 9171  10.924   7.029   9.932
 2388SOL    HW2 9172  10.912   6.911   9.837
 2389SOL     OW 9173   4.972   1.804   0.537
 2389SOL    HW1 9174   4.887   1.838   0.563
 2389SOL    HW2 9175   5.001   1.752   0.611
 2390SOL     OW 9176   0.283   8.962   6.930
 2390SOL    HW1 9177   0.236   8.925   6.855
 2390SOL    HW2 9178   0.274   9.056   6.919
 2391SOL     OW 9179   8.346   2.771   4.336
 2391SOL    HW1 9180   8.436   2.751   4.308
 2391SOL    HW2 9181   8.341   2.740   4.426
 2392SOL     OW 9182  10.885   7.393   5.451
 2392SOL    HW1 9183  10.968   7.427   5.485
 2392SOL    HW2 9184  10.878   7.430   5.363
 2393SOL     OW 9185   1.163   8.267   9.691
 2393SOL    HW1 9186   1.162   8.251   9.785
 2393SOL    HW2 9187   1.224   8.202   9.656
 2394SOL     OW 9188   5.394   4.014   1.433
 2394SOL    HW1 9189   5.477   4.011   1.480
 2394SOL    HW2 9190   5.328   4.023   1.501
 2395SOL     OW 9191   4.779   1.697  10.923
 2395SOL    HW1 9192   4.814   1.615  10.887
 2395SOL    HW2 9193   4.727   1.734  10.852
 2396SOL     OW 9194   5.909  10.867   6.798
 2396SOL    HW1 9195   5.866  10.834   6.719
 2396SOL    HW2 9196   5.838  10.893   6.856
 2397SOL     OW 9197   1.094   3.583   0.267
 2397SOL    HW1 9198   1.023   3.553   0.324
 2397SOL    HW2 9199   1.117   3.506   0.215
 2398SOL     OW 9200   1.043   2.642   0.684
 2398SOL    HW1 9201   1.006   2.593   0.610
 2398SOL    HW2 9202   0.974   2.642   0.750
 2399SOL     OW 9203   5.011   9.859   8.495
 2399SOL    HW1 9204   4.917   9.874   8.486
 2399SOL    HW2 9205   5.033   9.895   8.581
 2400SOL     OW 9206   6.804  10.629   3.699
 2400SOL    HW1 9207   6.747  10.630   3.622
 2400SOL    HW2 9208   6.747  10.653   3.772
 2401SOL     OW 9209   6.295   6.597   2.923
 2401SOL    HW1 9210   6.273   6.607   2.830
 2401SOL    HW2 9211   6.236   6.528   2.954
 2402SOL     OW 9212   2.568   7.071   9.580
 2402SOL    HW1 9213   2.580   7.145   9.639
 2402SOL    HW2 9214   2.531   7.002   9.635
 2403SOL     OW 9215   9.182   0.322   3.167
 2403SOL    HW1 9216   9.138   0.396   3.209
 2403SOL    HW2 9217   9.266   0.357   3.137
 2404SOL     OW 9218   9.614   1.912  10.776
 2404SOL    HW1 9219   9.680   1.882  10.839
 2404SOL    HW2 9220   9.652   1.991  10.738
 2405SOL     OW 9221  10.475   4.257   3.264
 2405SOL    HW1 9222  10.440   4.177   3.224
 2405SOL    HW2 9223  10.564   4.233   3.292
 2406SOL     OW 9224   1.298   3.069   4.259
 2406SOL    HW1 9225   1.314   3.124   4.182
 2406SOL    HW2 9226   1.384   3.060   4.300
 2407SOL     OW 9227  11.068   6.509   4.842
 2407SOL    HW1 9228  11.087   6.471   4.756
 2407SOL    HW2 9229  10.978   6.541   4.834
 2408SOL     OW 9230   3.980  10.840   0.960
 2408SOL    HW1 9231   4.064  10.833   1.005
 2408SOL    HW2 9232   3.955  10.750   0.942
 2409SOL     OW 9233   1.260   4.392   8.256
 2409SOL    HW1 9234   1.274   4.452   8.329
 2409SOL    HW2 9235   1.211   4.319   8.294
 2410SOL     OW 9236   3.704   1.648   7.213
 2410SOL    HW1 9237   3.769   1.578   7.219
 2410SOL    HW2 9238   3.667   1.654   7.301
 2411SOL     OW 9239   7.208   3.055   1.896
 2411SOL    HW1 9240   7.113   3.051   1.891
 2411SOL    HW2 9241   7.238   3.010   1.816
 2412SOL     OW 9242   6.038   3.537   4.605
 2412SOL    HW1 9243   5.954   3.582   4.601
 2412SOL    HW2 9244   6.074   3.546   4.517
 2413SOL     OW 9245   1.014   0.948   8.762
 2413SOL    HW1 9246   1.050   1.014   8.703
 2413SOL    HW2 9247   1.066   0.956   8.842
 2414SOL     OW 9248   4.564   0.540   3.141
 2414SOL    HW1 9249   4.469   0.549   3.148
 2414SOL    HW2 9250   4.596   0.541   3.231
 2415SOL     OW 9251   8.221   9.710   0.187
 2415SOL    HW1 9252   8.185   9.796   0.166
 2415SOL    HW2 9253   8.262   9.721   0.273
 2416SOL     OW 9254   2.364  10.728   3.594
 2416SOL    HW1 9255   2.459  10.717   3.603
 2416SOL    HW2 9256   2.333  10.645   3.558
 2417SOL     OW 9257   0.304   4.295   5.723
 2417SOL    HW1 9258   0.387   4.338   5.705
 2417SOL    HW2 9259   0.301   4.222   5.660
 2418SOL     OW 9260   0.994   6.980  10.532
 2418SOL    HW1 9261   1.016   6.985  10.625
 2418SOL    HW2 9262   1.026   6.894  10.504
 2419SOL     OW 9263   3.578   4.291  11.093
 2419SOL    HW1 9264   3.585   4.334  11.008
 2419SOL    HW2 9265   3.502   4.233  11.084
 2420SOL     OW 9266   8.008   6.083   5.882
 2420SOL    HW1 9267   7.971   6.171   5.875
 2420SOL    HW2 9268   7.995   6.045   5.795
 2421SOL     OW 9269   1.126   5.064   5.599
 2421SOL    HW1 9270   1.193   5.002   5.570
 2421SOL    HW2 9271   1.047   5.011   5.608
 2422SOL     OW 9272  10.314   8.393   0.698
 2422SOL    HW1 9273  10.271   8.363   0.778
 2422SOL    HW2 9274  10.293   8.326   0.633
 2423SOL     OW 9275   7.592   4.889   2.060
 2423SOL    HW1 9276   7.635   4.810   2.095
 2423SOL    HW2 9277   7.663   4.938   2.019
 2424SOL     OW 9278   0.080   2.094   6.373
 2424SOL    HW1 9279  -0.014   2.087   6.356
 2424SOL    HW2 9280   0.120   2.097   6.286
 2425SOL     OW 9281   7.030   2.650   2.980
 2425SOL    HW1 9282   7.085   2.664   2.903
 2425SOL    HW2 9283   6.962   2.590   2.950
 2426SOL     OW 9284   9.993  10.290   0.219
 2426SOL    HW1 9285  10.001  10.334   0.134
 2426SOL    HW2 9286   9.900  10.293   0.239
 2427SOL     OW 9287  10.922   1.966   2.779
 2427SOL    HW1 9288  10.928   1.985   2.685
 2427SOL    HW2 9289  10.993   2.017   2.818
 2428SOL     OW 9290   9.172   5.289   6.324
 2428SOL    HW1 9291   9.124   5.240   6.257
 2428SOL    HW2 9292   9.210   5.221   6.380
 2429SOL     OW 9293   7.720   7.859   0.619
 2429SOL    HW1 9294   7.650   7.898   0.671
 2429SOL    HW2 9295   7.757   7.932   0.570
 2430SOL     OW 9296   8.297   8.441   9.347
 2430SOL    HW1 9297   8.391   8.460   9.352
 2430SOL    HW2 9298   8.265   8.454   9.436
 2431SOL     OW 9299  11.056   0.444   2.775
 2431SOL    HW1 9300  11.093   0.454   2.687
 2431SOL    HW2 9301  11.132   0.447   2.833
 2432SOL     OW 9302  10.920   5.270   8.598
 2432SOL    HW1 9303  10.962   5.320   8.528
 2432SOL    HW2 9304  10.991   5.250   8.659
 2433SOL     OW 9305   2.913   3.445   9.279
 2433SOL    HW1 9306   2.997   3.437   9.324
 2433SOL    HW2 9307   2.901   3.539   9.267
 2434SOL     OW 9308   3.132   9.550   6.140
 2434SOL    HW1 9309   3.065   9.519   6.201
 2434SOL    HW2 9310   3.098   9.528   6.053
 2435SOL     OW 9311   8.264   0.820   8.066
 2435SOL    HW1 9312   8.317   0.896   8.042
 2435SOL    HW2 9313   8.294   0.796   8.153
 2436SOL     OW 9314   8.901   3.760   5.489
 2436SOL    HW1 9315   8.901   3.706   5.409
 2436SOL    HW2 9316   8.992   3.760   5.518
 2437SOL     OW 9317   7.599  10.988   7.493
 2437SOL    HW1 9318   7.522  10.983   7.549
 2437SOL    HW2 9319   7.658  11.049   7.538
 2438SOL     OW 9320   5.263  10.305   7.993
 2438SOL    HW1 9321   5.203  10.362   7.945
 2438SOL    HW2 9322   5.243  10.320   8.085
 2439SOL     OW 9323  10.628   2.924   4.206
 2439SOL    HW1 9324  10.681   2.996   4.172
 2439SOL    HW2 9325  10.545   2.964   4.229
 2440SOL     OW 9326   9.472   2.848   7.265
 2440SOL    HW1 9327   9.381   2.818   7.270
 2440SOL    HW2 9328   9.519   2.794   7.329
 2441SOL     OW 9329   1.994   2.024   3.157
 2441SOL    HW1 9330   2.013   2.079   3.081
 2441SOL    HW2 9331   1.975   2.085   3.228
 2442SOL     OW 9332   1.337   0.721   8.015
 2442SOL    HW1 9333   1.357   0.787   7.948
 2442SOL    HW2 9334   1.392   0.744   8.090
 2443SOL     OW 9335   2.147   5.693   0.368
 2443SOL    HW1 9336   2.238   5.671   0.346
 2443SOL    HW2 9337   2.146   5.699   0.463
 2444SOL     OW 9338   2.555   2.979   8.776
 2444SOL    HW1 9339   2.509   3.025   8.706
 2444SOL    HW2 9340   2.553   2.887   8.750
 2445SOL     OW 9341   8.262   3.324  10.013
 2445SOL    HW1 9342   8.287   3.263  10.082
 2445SOL    HW2 9343   8.168   3.336  10.025
 2446SOL     OW 9344   0.761   7.352   9.912
 2446SOL    HW1 9345   0.728   7.435   9.945
 2446SOL    HW2 9346   0.724   7.345   9.824
 2447SOL     OW 9347   2.383   9.170   2.332
 2447SOL    HW1 9348   2.422   9.083   2.320
 2447SOL    HW2 9349   2.442   9.229   2.285
 2448SOL     OW 9350   9.477   1.630   8.733
 2448SOL    HW1 9351   9.467   1.718   8.697
 2448SOL    HW2 9352   9.515   1.579   8.661
 2449SOL     OW 9353   6.646   0.727   0.871
 2449SOL    HW1 9354   6.714   0.660   0.862
 2449SOL    HW2 9355   6.653   0.756   0.961
 2450SOL     OW 9356   5.638   1.522   4.186
 2450SOL    HW1 9357   5.690   1.450   4.223
 2450SOL    HW2 9358   5.563   1.478   4.145
 2451SOL     OW 9359   4.056   3.953   3.178
 2451SOL    HW1 9360   3.982   3.925   3.232
 2451SOL    HW2 9361   4.016   3.983   3.096
 2452SOL     OW 9362   4.858   9.571   2.741
 2452SOL    HW1 9363   4.925   9.617   2.690
 2452SOL    HW2 9364   4.776   9.612   2.715
 2453SOL     OW 9365   5.008   9.428   4.804
 2453SOL    HW1 9366   4.931   9.464   4.760
 2453SOL    HW2 9367   5.019   9.482   4.882
 2454SOL     OW 9368   8.631   2.616   0.047
 2454SOL    HW1 9369   8.726   2.614   0.060
 2454SOL    HW2 9370   8.597   2.657   0.127
 2455SOL     OW 9371   2.152   0.265   2.533
 2455SOL    HW1 9372   2.193   0.275   2.447
 2455SOL    HW2 9373   2.215   0.303   2.594
 2456SOL     OW 9374   2.267   8.554   8.296
 2456SOL    HW1 9375   2.303   8.481   8.347
 2456SOL    HW2 9376   2.217   8.511   8.226
 2457SOL     OW 9377   6.778   5.162   4.056
 2457SOL    HW1 9378   6.707   5.164   4.120
 2457SOL    HW2 9379   6.850   5.208   4.098
 2458SOL     OW 9380   2.501   6.973   1.093
 2458SOL    HW1 9381   2.436   6.951   1.026
 2458SOL    HW2 9382   2.513   7.067   1.085
 2459SOL     OW 9383   2.743   0.956  10.144
 2459SOL    HW1 9384   2.740   1.048  10.167
 2459SOL    HW2 9385   2.676   0.915  10.198
 2460SOL     OW 9386   7.575   8.153   3.936
 2460SOL    HW1 9387   7.485   8.140   3.907
 2460SOL    HW2 9388   7.627   8.143   3.856
 2461SOL     OW 9389   3.965  10.706   7.655
 2461SOL    HW1 9390   3.894  10.680   7.596
 2461SOL    HW2 9391   4.033  10.639   7.642
 2462SOL     OW 9392   0.644   8.978  10.676
 2462SOL    HW1 9393   0.618   8.915  10.609
 2462SOL    HW2 9394   0.566   8.991  10.729
 2463SOL     OW 9395  10.491   1.938   8.440
 2463SOL    HW1 9396  10.447   1.854   8.453
 2463SOL    HW2 9397  10.471   1.988   8.518
 2464SOL     OW 9398   0.047   0.495  10.682
 2464SOL    HW1 9399   0.101   0.447  10.619
 2464SOL    HW2 9400   0.107   0.557  10.722
 2465SOL     OW 9401   4.998   2.567   3.256
 2465SOL    HW1 9402   5.064   2.634   3.238
 2465SOL    HW2 9403   4.953   2.598   3.334
 2466SOL     OW 9404   4.674   9.038   7.345
 2466SOL    HW1 9405   4.669   9.065   7.436
 2466SOL    HW2 9406   4.583   9.032   7.317
 2467SOL     OW 9407   2.573  10.802   1.285
 2467SOL    HW1 9408   2.505  10.816   1.351
 2467SOL    HW2 9409   2.639  10.868   1.304
 2468SOL     OW 9410   8.792  10.443   1.547
 2468SOL    HW1 9411   8.810  10.503   1.474
 2468SOL    HW2 9412   8.715  10.394   1.519
 2469SOL     OW 9413   4.647   2.783   8.767
 2469SOL    HW1 9414   4.609   2.710   8.816
 2469SOL    HW2 9415   4.729   2.748   8.731
 2470SOL     OW 9416   2.293   6.847   6.002
 2470SOL    HW1 9417   2.360   6.781   5.982
 2470SOL    HW2 9418   2.255   6.869   5.917
 2471SOL     OW 9419   1.911   2.380   7.865
 2471SOL    HW1 9420   1.821   2.401   7.888
 2471SOL    HW2 9421   1.964   2.419   7.935
 2472SOL     OW 9422  10.479   9.317   1.971
 2472SOL    HW1 9423  10.496   9.385   2.036
 2472SOL    HW2 9424  10.553   9.257   1.979
 2473SOL     OW 9425   6.479   5.105   0.347
 2473SOL    HW1 9426   6.484   5.158   0.426
 2473SOL    HW2 9427   6.385   5.097   0.329
 2474SOL     OW 9428   0.800   2.206   9.091
 2474SOL    HW1 9429   0.782   2.295   9.061
 2474SOL    HW2 9430   0.875   2.215   9.149
 2475SOL     OW 9431   3.369   2.741   2.402
 2475SOL    HW1 9432   3.333   2.811   2.348
 2475SOL    HW2 9433   3.388   2.670   2.340
 2476SOL     OW 9434   2.265   2.126   9.952
 2476SOL    HW1 9435   2.275   2.174  10.034
 2476SOL    HW2 9436   2.305   2.182   9.886
 2477SOL     OW 9437   3.922   8.664   1.812
 2477SOL    HW1 9438   4.003   8.643   1.765
 2477SOL    HW2 9439   3.936   8.629   1.900
 2478SOL     OW 9440   5.668   9.173   9.221
 2478SOL    HW1 9441   5.699   9.262   9.207
 2478SOL    HW2 9442   5.654   9.139   9.132
 2479SOL     OW 9443   4.474   6.012  10.123
 2479SOL    HW1 9444   4.476   5.939  10.060
 2479SOL    HW2 9445   4.444   6.087  10.071
 2480SOL     OW 9446   8.874   4.121   0.386
 2480SOL    HW1 9447   8.814   4.088   0.319
 2480SOL    HW2 9448   8.950   4.151   0.336
 2481SOL     OW 9449   0.302   1.567   6.225
 2481SOL    HW1 9450   0.396   1.570   6.210
 2481SOL    HW2 9451   0.275   1.481   6.192
 2482SOL     OW 9452   3.534   8.163   8.985
 2482SOL    HW1 9453   3.559   8.234   9.044
 2482SOL    HW2 9454   3.613   8.108   8.978
 2483SOL     OW 9455   3.439   2.803   2.980
 2483SOL    HW1 9456   3.428   2.878   3.038
 2483SOL    HW2 9457   3.360   2.750   2.992
 2484SOL     OW 9458   1.236   1.237   7.626
 2484SOL    HW1 9459   1.268   1.172   7.562
 2484SOL    HW2 9460   1.238   1.320   7.579
 2485SOL     OW 9461   8.266   2.359   1.789
 2485SOL    HW1 9462   8.198   2.329   1.849
 2485SOL    HW2 9463   8.348   2.342   1.835
 2486SOL     OW 9464   2.961   9.218  11.080
 2486SOL    HW1 9465   2.936   9.224  11.172
 2486SOL    HW2 9466   2.911   9.143  11.046
 2487SOL     OW 9467   0.726   4.084   0.310
 2487SOL    HW1 9468   0.706   4.008   0.254
 2487SOL    HW2 9469   0.698   4.160   0.258
 2488SOL     OW 9470   5.035  10.286   3.330
 2488SOL    HW1 9471   5.046  10.259   3.239
 2488SOL    HW2 9472   4.987  10.368   3.325
 2489SOL     OW 9473   9.325   8.737   3.933
 2489SOL    HW1 9474   9.379   8.816   3.932
 2489SOL    HW2 9475   9.235   8.769   3.927
 2490SOL     OW 9476   4.143   2.006   9.251
 2490SOL    HW1 9477   4.145   1.958   9.168
 2490SOL    HW2 9478   4.061   1.979   9.292
 2491SOL     OW 9479   4.632   7.219   4.273
 2491SOL    HW1 9480   4.595   7.271   4.202
 2491SOL    HW2 9481   4.686   7.153   4.228
 2492SOL     OW 9482   8.324   4.003   1.709
 2492SOL    HW1 9483   8.342   4.005   1.803
 2492SOL    HW2 9484   8.323   3.909   1.687
 2493SOL     OW 9485   4.721   0.036  10.280
 2493SOL    HW1 9486   4.630   0.057  10.299
 2493SOL    HW2 9487   4.729  -0.057  10.301
 2494SOL     OW 9488   9.950   3.873  11.101
 2494SOL    HW1 9489   9.932   3.786  11.137
 2494SOL    HW2 9490   9.865   3.906  11.074
 2495SOL     OW 9491   5.904   4.239   1.282
 2495SOL    HW1 9492   5.937   4.206   1.366
 2495SOL    HW2 9493   5.983   4.258   1.231
 2496SOL     OW 9494   0.210   2.937   0.537
 2496SOL    HW1 9495   0.217   2.909   0.445
 2496SOL    HW2 9496   0.199   2.855   0.585
 2497SOL     OW 9497   7.437   2.263   9.763
 2497SOL    HW1 9498   7.413   2.213   9.685
 2497SOL    HW2 9499   7.441   2.198   9.833
 2498SOL     OW 9500   5.487   1.744   6.241
 2498SOL    HW1 9501   5.477   1.714   6.331
 2498SOL    HW2 9502   5.467   1.666   6.188
 2499SOL     OW 9503   2.395   9.448   1.595
 2499SOL    HW1 9504   2.418   9.454   1.502
 2499SOL    HW2 9505   2.477   9.464   1.641
 2500SOL     OW 9506   9.967   8.173   3.912
 2500SOL    HW1 9507   9.949   8.242   3.975
 2500SOL    HW2 9508   9.998   8.219   3.834
 2501SOL     OW 9509   8.193   5.104   0.869
 2501SOL    HW1 9510   8.146   5.030   0.909
 2501SOL    HW2 9511   8.153   5.182   0.907
 2502SOL     OW 9512   8.219   8.229  10.901
 2502SOL    HW1 9513   8.166   8.150  10.891
 2502SOL    HW2 9514   8.309   8.197  10.901
 2503SOL     OW 9515  10.672   1.622   4.786
 2503SOL    HW1 9516  10.704   1.545   4.738
 2503SOL    HW2 9517  10.734   1.632   4.858
 2504SOL     OW 9518   5.530   6.998   7.749
 2504SOL    HW1 9519   5.457   7.060   7.751
 2504SOL    HW2 9520   5.607   7.052   7.730
 2505SOL     OW 9521   9.116   7.178   9.215
 2505SOL    HW1 9522   9.060   7.228   9.156
 2505SOL    HW2 9523   9.055   7.128   9.269
 2506SOL     OW 9524   7.302   2.070   0.482
 2506SOL    HW1 9525   7.356   2.028   0.414
 2506SOL    HW2 9526   7.249   2.134   0.434
 2507SOL     OW 9527   5.970   4.675   1.324
 2507SOL    HW1 9528   6.045   4.615   1.324
 2507SOL    HW2 9529   5.895   4.618   1.307
 2508SOL     OW 9530   3.904   4.890   4.532
 2508SOL    HW1 9531   3.850   4.826   4.578
 2508SOL    HW2 9532   3.988   4.846   4.520
 2509SOL     OW 9533   0.789   4.914   0.592
 2509SOL    HW1 9534   0.789   4.997   0.640
 2509SOL    HW2 9535   0.705   4.874   0.613
 2510SOL     OW 9536  10.445   1.610   3.560
 2510SOL    HW1 9537  10.424   1.684   3.617
 2510SOL    HW2 9538  10.378   1.612   3.492
 2511SOL     OW 9539   7.906   4.079   9.794
 2511SOL    HW1 9540   7.963   4.133   9.848
 2511SOL    HW2 9541   7.947   3.992   9.795
 2512SOL     OW 9542   8.767   5.853   6.538
 2512SOL    HW1 9543   8.714   5.907   6.596
 2512SOL    HW2 9544   8.767   5.766   6.579
 2513SOL     OW 9545   2.335   0.261   1.507
 2513SOL    HW1 9546   2.315   0.351   1.530
 2513SOL    HW2 9547   2.368   0.222   1.588
 2514SOL     OW 9548   6.075   1.550   0.497
 2514SOL    HW1 9549   6.153   1.597   0.527
 2514SOL    HW2 9550   6.071   1.568   0.403
 2515SOL     OW 9551   5.811   1.684   3.193
 2515SOL    HW1 9552   5.732   1.658   3.146
 2515SOL    HW2 9553   5.807   1.636   3.275
 2516SOL     OW 9554   6.149   4.878   0.531
 2516SOL    HW1 9555   6.196   4.934   0.593
 2516SOL    HW2 9556   6.090   4.937   0.485
 2517SOL     OW 9557   9.533   7.703   1.530
 2517SOL    HW1 9558   9.591   7.778   1.519
 2517SOL    HW2 9559   9.466   7.715   1.463
 2518SOL     OW 9560   2.374   4.736   4.032
 2518SOL    HW1 9561   2.452   4.753   3.979
 2518SOL    HW2 9562   2.394   4.775   4.117
 2519SOL     OW 9563   7.470   5.140  10.571
 2519SOL    HW1 9564   7.497   5.072  10.509
 2519SOL    HW2 9565   7.408   5.193  10.521
 2520SOL     OW 9566   6.313   0.809   6.223
 2520SOL    HW1 9567   6.396   0.844   6.254
 2520SOL    HW2 9568   6.319   0.814   6.127
 2521SOL     OW 9569   2.641   6.810  10.612
 2521SOL    HW1 9570   2.566   6.844  10.563
 2521SOL    HW2 9571   2.686   6.753  10.549
 2522SOL     OW 9572   4.695   0.458   8.217
 2522SOL    HW1 9573   4.626   0.460   8.283
 2522SOL    HW2 9574   4.697   0.367   8.187
 2523SOL     OW 9575   0.583   1.507   6.235
 2523SOL    HW1 9576   0.629   1.455   6.169
 2523SOL    HW2 9577   0.626   1.484   6.317
 2524SOL     OW 9578   1.458   2.973   2.931
 2524SOL    HW1 9579   1.486   3.059   2.962
 2524SOL    HW2 9580   1.540   2.926   2.914
 2525SOL     OW 9581   3.198   2.920  10.792
 2525SOL    HW1 9582   3.250   2.877  10.724
 2525SOL    HW2 9583   3.209   2.864  10.869
 2526SOL     OW 9584   4.573   0.937   2.959
 2526SOL    HW1 9585   4.578   1.032   2.967
 2526SOL    HW2 9586   4.623   0.917   2.880
 2527SOL     OW 9587   4.907   3.095   8.154
 2527SOL    HW1 9588   4.926   3.168   8.213
 2527SOL    HW2 9589   4.992   3.071   8.117
 2528SOL     OW 9590   4.481   0.796   7.088
 2528SOL    HW1 9591   4.423   0.857   7.132
 2528SOL    HW2 9592   4.550   0.778   7.152
 2529SOL     OW 9593   5.935   0.466   8.921
 2529SOL    HW1 9594   5.892   0.551   8.929
 2529SOL    HW2 9595   6.013   0.473   8.976
 2530SOL     OW 9596   7.330   2.467   5.202
 2530SOL    HW1 9597   7.307   2.376   5.221
 2530SOL    HW2 9598   7.372   2.463   5.116
 2531SOL     OW 9599   0.178   1.766   0.306
 2531SOL    HW1 9600   0.251   1.710   0.278
 2531SOL    HW2 9601   0.208   1.855   0.290
 2532SOL     OW 9602   7.170   0.911   6.671
 2532SOL    HW1 9603   7.178   0.818   6.692
 2532SOL    HW2 9604   7.242   0.927   6.610
 2533SOL     OW 9605   4.224   9.155   1.658
 2533SOL    HW1 9606   4.263   9.067   1.655
 2533SOL    HW2 9607   4.231   9.182   1.749
 2534SOL     OW 9608   5.502   4.078   4.241
 2534SOL    HW1 9609   5.456   4.010   4.190
 2534SOL    HW2 9610   5.593   4.072   4.212
 2535SOL     OW 9611   1.738  10.661   3.015
 2535SOL    HW1 9612   1.704  10.655   2.925
 2535SOL    HW2 9613   1.808  10.595   3.018
 2536SOL     OW 9614   6.200   6.140   0.488
 2536SOL    HW1 9615   6.261   6.185   0.547
 2536SOL    HW2 9616   6.116   6.183   0.502
 2537SOL     OW 9617   3.309   0.238  10.890
 2537SOL    HW1 9618   3.339   0.320  10.928
 2537SOL    HW2 9619   3.300   0.179  10.965
 2538SOL     OW 9620  10.557   1.963   6.233
 2538SOL    HW1 9621  10.492   2.024   6.198
 2538SOL    HW2 9622  10.605   2.013   6.298
 2539SOL     OW 9623  10.423   3.941   4.720
 2539SOL    HW1 9624  10.418   3.864   4.777
 2539SOL    HW2 9625  10.335   3.979   4.723
 2540SOL     OW 9626  10.797   9.381   4.193
 2540SOL    HW1 9627  10.791   9.411   4.283
 2540SOL    HW2 9628  10.779   9.287   4.197
 2541SOL     OW 9629   1.277   2.710   7.129
 2541SOL    HW1 9630   1.206   2.708   7.193
 2541SOL    HW2 9631   1.236   2.682   7.047
 2542SOL     OW 9632   3.670   9.800   2.567
 2542SOL    HW1 9633   3.600   9.738   2.546
 2542SOL    HW2 9634   3.650   9.830   2.655
 2543SOL     OW 9635   9.534   1.978   8.326
 2543SOL    HW1 9636   9.534   2.020   8.240
 2543SOL    HW2 9637   9.494   2.042   8.384
 2544SOL     OW 9638   6.596   9.730   3.550
 2544SOL    HW1 9639   6.611   9.823   3.538
 2544SOL    HW2 9640   6.516   9.725   3.601
 2545SOL     OW 9641   4.762   1.210   8.352
 2545SOL    HW1 9642   4.749   1.155   8.429
 2545SOL    HW2 9643   4.756   1.149   8.278
 2546SOL     OW 9644   5.818   4.552   0.014
 2546SOL    HW1 9645   5.817   4.485   0.083
 2546SOL    HW2 9646   5.836   4.503  -0.066
 2547SOL     OW 9647   1.019   6.713   0.657
 2547SOL    HW1 9648   1.097   6.662   0.635
 2547SOL    HW2 9649   1.034   6.799   0.617
 2548SOL     OW 9650   9.330   3.192  10.267
 2548SOL    HW1 9651   9.270   3.254  10.308
 2548SOL    HW2 9652   9.295   3.106  10.289
 2549SOL     OW 9653   9.338   5.831   5.188
 2549SOL    HW1 9654   9.339   5.841   5.283
 2549SOL    HW2 9655   9.370   5.914   5.154
 2550SOL     OW 9656  10.083   0.330   8.046
 2550SOL    HW1 9657  10.151   0.395   8.031
 2550SOL    HW2 9658  10.131   0.249   8.064
 2551SOL     OW 9659   9.047   0.793   4.377
 2551SOL    HW1 9660   8.965   0.821   4.417
 2551SOL    HW2 9661   9.095   0.874   4.361
 2552SOL     OW 9662   8.962   1.367   6.145
 2552SOL    HW1 9663   8.982   1.437   6.083
 2552SOL    HW2 9664   8.918   1.410   6.218
 2553SOL     OW 9665   9.094   1.992   0.925
 2553SOL    HW1 9666   9.071   2.062   0.864
 2553SOL    HW2 9667   9.188   1.978   0.911
 2554SOL     OW 9668   5.646   1.144   3.106
 2554SOL    HW1 9669   5.711   1.088   3.063
 2554SOL    HW2 9670   5.589   1.083   3.153
 2555SOL     OW 9671   8.613   9.905  10.471
 2555SOL    HW1 9672   8.619   9.951  10.387
 2555SOL    HW2 9673   8.519   9.896  10.487
 2556SOL     OW 9674   3.172   6.362   9.720
 2556SOL    HW1 9675   3.216   6.314   9.650
 2556SOL    HW2 9676   3.213   6.330   9.800
 2557SOL     OW 9677   7.840   7.144  10.838
 2557SOL    HW1 9678   7.814   7.108  10.753
 2557SOL    HW2 9679   7.900   7.078  10.874
 2558SOL     OW 9680   5.627   0.089   8.818
 2558SOL    HW1 9681   5.623   0.154   8.888
 2558SOL    HW2 9682   5.698   0.030   8.843
 2559SOL     OW 9683  10.572   3.473   9.247
 2559SOL    HW1 9684  10.550   3.559   9.212
 2559SOL    HW2 9685  10.581   3.417   9.169
 2560SOL     OW 9686   1.569   0.951   9.876
 2560SOL    HW1 9687   1.488   0.902   9.892
 2560SOL    HW2 9688   1.545   1.042   9.890
 2561SOL     OW 9689   5.388   1.361   3.027
 2561SOL    HW1 9690   5.424   1.441   3.063
 2561SOL    HW2 9691   5.432   1.351   2.942
 2562SOL     OW 9692  10.540   3.926   8.412
 2562SOL    HW1 9693  10.510   3.860   8.474
 2562SOL    HW2 9694  10.624   3.893   8.381
 2563SOL     OW 9695   1.647   3.830   9.844
 2563SOL    HW1 9696   1.569   3.833   9.789
 2563SOL    HW2 9697   1.704   3.898   9.809
 2564SOL     OW 9698   2.936   8.836   3.765
 2564SOL    HW1 9699   2.964   8.745   3.774
 2564SOL    HW2 9700   2.901   8.859   3.851
 2565SOL     OW 9701   4.058   0.372   7.147
 2565SOL    HW1 9702   4.092   0.328   7.225
 2565SOL    HW2 9703   4.094   0.460   7.152
 2566SOL     OW 9704   4.985   1.372   0.652
 2566SOL    HW1 9705   5.031   1.336   0.576
 2566SOL    HW2 9706   5.008   1.465   0.652
 2567SOL     OW 9707  10.508   1.903   1.561
 2567SOL    HW1 9708  10.489   1.864   1.646
 2567SOL    HW2 9709  10.602   1.922   1.564
 2568SOL     OW 9710  10.916   0.144   8.289
 2568SOL    HW1 9711  10.863   0.166   8.212
 2568SOL    HW2 9712  10.853   0.135   8.360
 2569SOL     OW 9713   3.737   1.222   0.999
 2569SOL    HW1 9714   3.663   1.161   0.994
 2569SOL    HW2 9715   3.809   1.175   0.957
 2570SOL     OW 9716   5.592   3.527   1.455
 2570SOL    HW1 9717   5.538   3.451   1.433
 2570SOL    HW2 9718   5.537   3.580   1.512
 2571SOL     OW 9719   1.148   0.770   3.287
 2571SOL    HW1 9720   1.164   0.810   3.372
 2571SOL    HW2 9721   1.137   0.677   3.306
 2572SOL     OW 9722   9.105   2.970   2.743
 2572SOL    HW1 9723   9.012   2.965   2.766
 2572SOL    HW2 9724   9.105   2.990   2.649
 2573SOL     OW 9725   8.479   0.155   1.277
 2573SOL    HW1 9726   8.527   0.236   1.261
 2573SOL    HW2 9727   8.544   0.095   1.314
 2574SOL     OW 9728   8.398  10.986   3.947
 2574SOL    HW1 9729   8.415  10.892   3.950
 2574SOL    HW2 9730   8.418  11.017   4.035
 2575SOL     OW 9731   7.415   1.529   2.923
 2575SOL    HW1 9732   7.348   1.550   2.858
 2575SOL    HW2 9733   7.381   1.452   2.969
 2576SOL     OW 9734   2.532   2.738   5.136
 2576SOL    HW1 9735   2.467   2.669   5.123
 2576SOL    HW2 9736   2.563   2.757   5.047
 2577SOL     OW 9737   2.265   3.313  10.756
 2577SOL    HW1 9738   2.215   3.268  10.688
 2577SOL    HW2 9739   2.305   3.387  10.711
 2578SOL     OW 9740   0.109   3.784   7.401
 2578SOL    HW1 9741   0.162   3.713   7.437
 2578SOL    HW2 9742   0.131   3.786   7.308
 2579SOL     OW 9743   2.138  11.005   1.550
 2579SOL    HW1 9744   2.110  11.096   1.545
 2579SOL    HW2 9745   2.058  10.955   1.563
 2580SOL     OW 9746  10.785   8.849   6.749
 2580SOL    HW1 9747  10.767   8.830   6.657
 2580SOL    HW2 9748  10.724   8.793   6.797
 2581SOL     OW 9749   4.149  10.822   5.102
 2581SOL    HW1 9750   4.205  10.858   5.170
 2581SOL    HW2 9751   4.198  10.836   5.021
 2582SOL     OW 9752  10.823  11.069   8.740
 2582SOL    HW1 9753  10.757  11.005   8.765
 2582SOL    HW2 9754  10.903  11.018   8.728
 2583SOL     OW 9755   3.937   0.571  10.651
 2583SOL    HW1 9756   3.970   0.548  10.564
 2583SOL    HW2 9757   3.957   0.664  10.660
 2584SOL     OW 9758   5.151   6.812   3.468
 2584SOL    HW1 9759   5.196   6.744   3.418
 2584SOL    HW2 9760   5.149   6.887   3.409
 2585SOL     OW 9761   3.043   5.077   3.858
 2585SOL    HW1 9762   2.961   5.052   3.901
 2585SOL    HW2 9763   3.097   5.112   3.928
 2586SOL     OW 9764   3.784  11.036   1.825
 2586SOL    HW1 9765   3.724  11.041   1.750
 2586SOL    HW2 9766   3.762  11.112   1.878
 2587SOL     OW 9767  10.725   6.621   2.294
 2587SOL    HW1 9768  10.741   6.575   2.376
 2587SOL    HW2 9769  10.724   6.714   2.317
 2588SOL     OW 9770   7.831   8.438   0.106
 2588SOL    HW1 9771   7.769   8.480   0.047
 2588SOL    HW2 9772   7.862   8.508   0.163
 2589SOL     OW 9773   4.843   5.731   3.238
 2589SOL    HW1 9774   4.808   5.792   3.173
 2589SOL    HW2 9775   4.766   5.691   3.278
 2590SOL     OW 9776   9.074   1.449   4.789
 2590SOL    HW1 9777   9.169   1.440   4.799
 2590SOL    HW2 9778   9.052   1.388   4.718
 2591SOL     OW 9779   9.511  10.106   9.784
 2591SOL    HW1 9780   9.438  10.060   9.743
 2591SOL    HW2 9781   9.589  10.074   9.738
 2592SOL     OW 9782  10.657   3.240   5.277
 2592SOL    HW1 9783  10.646   3.150   5.307
 2592SOL    HW2 9784  10.714   3.280   5.342
 2593SOL     OW 9785   3.851   1.538   0.869
 2593SOL    HW1 9786   3.853   1.598   0.794
 2593SOL    HW2 9787   3.860   1.451   0.830
 2594SOL     OW 9788   3.201   2.538   2.112
 2594SOL    HW1 9789   3.273   2.591   2.079
 2594SOL    HW2 9790   3.241   2.454   2.134
 2595SOL     OW 9791   4.250   0.961   9.802
 2595SOL    HW1 9792   4.239   0.947   9.708
 2595SOL    HW2 9793   4.277   0.875   9.836
 2596SOL     OW 9794  10.056   6.703   3.395
 2596SOL    HW1 9795  10.114   6.758   3.447
 2596SOL    HW2 9796  10.046   6.750   3.312
 2597SOL     OW 9797   1.691   5.337   1.443
 2597SOL    HW1 9798   1.764   5.362   1.500
 2597SOL    HW2 9799   1.726   5.265   1.390
 2598SOL     OW 9800   0.092   2.337  10.267
 2598SOL    HW1 9801   0.018   2.353  10.325
 2598SOL    HW2 9802   0.135   2.260  10.304
 2599SOL     OW 9803   0.332   6.055   1.140
 2599SOL    HW1 9804   0.381   6.035   1.220
 2599SOL    HW2 9805   0.293   6.141   1.155
 2600SOL     OW 9806   8.527   7.424  10.689
 2600SOL    HW1 9807   8.525   7.336  10.728
 2600SOL    HW2 9808   8.572   7.412  10.605
 2601SOL     OW 9809   6.410   4.193   2.675
 2601SOL    HW1 9810   6.473   4.211   2.745
 2601SOL    HW2 9811   6.371   4.109   2.699
 2602SOL     OW 9812   8.452   5.164   5.062
 2602SOL    HW1 9813   8.518   5.112   5.015
 2602SOL    HW2 9814   8.453   5.249   5.018
 2603SOL     OW 9815   6.501  10.397  10.227
 2603SOL    HW1 9816   6.594  10.417  10.240
 2603SOL    HW2 9817   6.500  10.303  10.209
 2604SOL     OW 9818   9.463   5.034   6.104
 2604SOL    HW1 9819   9.554   5.004   6.111
 2604SOL    HW2 9820   9.462   5.090   6.026
 2605SOL     OW 9821   8.441  10.609   2.806
 2605SOL    HW1 9822   8.480  10.561   2.733
 2605SOL    HW2 9823   8.477  10.567   2.884
 2606SOL     OW 9824   1.714   4.167   9.692
 2606SOL    HW1 9825   1.719   4.135   9.782
 2606SOL    HW2 9826   1.805   4.173   9.663
 2607SOL     OW 9827   4.402   4.028   6.327
 2607SOL    HW1 9828   4.481   3.975   6.338
 2607SOL    HW2 9829   4.422   4.109   6.372
 2608SOL     OW 9830   0.676   1.367   9.772
 2608SOL    HW1 9831   0.772   1.362   9.772
 2608SOL    HW2 9832   0.656   1.445   9.721
 2609SOL     OW 9833   7.925   8.379   6.931
 2609SOL    HW1 9834   8.015   8.403   6.954
 2609SOL    HW2 9835   7.899   8.317   6.999
 2610SOL     OW 9836   8.603  10.573   7.844
 2610SOL    HW1 9837   8.532  10.615   7.893
 2610SOL    HW2 9838   8.573  10.483   7.832
 2611SOL     OW 9839   4.791   6.249  11.054
 2611SOL    HW1 9840   4.831   6.177  11.005
 2611SOL    HW2 9841   4.830   6.328  11.016
 2612SOL     OW 9842   9.809   8.628  10.320
 2612SOL    HW1 9843   9.775   8.581  10.396
 2612SOL    HW2 9844   9.743   8.694  10.301
 2613SOL     OW 9845  10.463   7.216   5.996
 2613SOL    HW1 9846  10.465   7.175   5.909
 2613SOL    HW2 9847  10.549   7.257   6.004
 2614SOL     OW 9848   1.451   1.462   4.144
 2614SOL    HW1 9849   1.435   1.384   4.198
 2614SOL    HW2 9850   1.406   1.533   4.190
 2615SOL     OW 9851   0.364   3.396   4.373
 2615SOL    HW1 9852   0.400   3.459   4.435
 2615SOL    HW2 9853   0.440   3.366   4.323
 2616SOL     OW 9854   2.059   2.615   7.493
 2616SOL    HW1 9855   1.985   2.578   7.541
 2616SOL    HW2 9856   2.039   2.708   7.483
 2617SOL     OW 9857   4.285   4.682   2.953
 2617SOL    HW1 9858   4.305   4.644   3.039
 2617SOL    HW2 9859   4.299   4.610   2.891
 2618SOL     OW 9860   1.625   4.575   1.829
 2618SOL    HW1 9861   1.660   4.664   1.826
 2618SOL    HW2 9862   1.592   4.565   1.918
 2619SOL     OW 9863   2.431   2.939   5.379
 2619SOL    HW1 9864   2.340   2.944   5.408
 2619SOL    HW2 9865   2.431   2.870   5.312
 2620SOL     OW 9866   8.673   2.009   3.956
 2620SOL    HW1 9867   8.588   2.004   3.912
 2620SOL    HW2 9868   8.727   2.062   3.897
 2621SOL     OW 9869   9.954   3.793   4.309
 2621SOL    HW1 9870  10.048   3.782   4.295
 2621SOL    HW2 9871   9.918   3.706   4.292
 2622SOL     OW 9872   8.008   1.055   4.135
 2622SOL    HW1 9873   7.959   0.973   4.124
 2622SOL    HW2 9874   8.070   1.056   4.062
 2623SOL     OW 9875   3.274   1.877   6.425
 2623SOL    HW1 9876   3.284   1.838   6.512
 2623SOL    HW2 9877   3.316   1.962   6.432
 2624SOL     OW 9878   3.302   3.336   7.396
 2624SOL    HW1 9879   3.359   3.280   7.449
 2624SOL    HW2 9880   3.214   3.304   7.415
 2625SOL     OW 9881   5.444   1.157   1.912
 2625SOL    HW1 9882   5.418   1.239   1.870
 2625SOL    HW2 9883   5.535   1.171   1.939
 2626SOL     OW 9884   3.816   5.007   1.842
 2626SOL    HW1 9885   3.823   5.083   1.784
 2626SOL    HW2 9886   3.724   5.004   1.867
 2627SOL     OW 9887   7.234   2.727   6.606
 2627SOL    HW1 9888   7.163   2.780   6.570
 2627SOL    HW2 9889   7.210   2.713   6.697
 2628SOL     OW 9890   2.465   0.913   3.538
 2628SOL    HW1 9891   2.450   0.974   3.609
 2628SOL    HW2 9892   2.482   0.829   3.581
 2629SOL     OW 9893   5.338   5.163   4.698
 2629SOL    HW1 9894   5.367   5.121   4.617
 2629SOL    HW2 9895   5.361   5.101   4.767
 2630SOL     OW 9896   7.331   9.671   8.599
 2630SOL    HW1 9897   7.405   9.715   8.556
 2630SOL    HW2 9898   7.371   9.622   8.671
 2631SOL     OW 9899   5.483   4.532   9.185
 2631SOL    HW1 9900   5.398   4.525   9.141
 2631SOL    HW2 9901   5.546   4.541   9.113
 2632SOL     OW 9902   3.023   1.104  10.862
 2632SOL    HW1 9903   3.113   1.070  10.867
 2632SOL    HW2 9904   3.021   1.177  10.923
 2633SOL     OW 9905  10.494   1.621   3.914
 2633SOL    HW1 9906  10.482   1.684   3.985
 2633SOL    HW2 9907  10.424   1.641   3.852
 2634SOL     OW 9908   8.120   2.289   0.906
 2634SOL    HW1 9909   8.163   2.368   0.937
 2634SOL    HW2 9910   8.078   2.252   0.984
 2635SOL     OW 9911   3.156   4.269  11.049
 2635SOL    HW1 9912   3.205   4.351  11.047
 2635SOL    HW2 9913   3.223   4.201  11.059
 2636SOL     OW 9914   6.125   6.166  10.034
 2636SOL    HW1 9915   6.038   6.159   9.995
 2636SOL    HW2 9916   6.112   6.218  10.113
 2637SOL     OW 9917   1.621   5.376   0.550
 2637SOL    HW1 9918   1.586   5.417   0.471
 2637SOL    HW2 9919   1.665   5.297   0.518
 2638SOL     OW 9920   8.893   3.135   0.725
 2638SOL    HW1 9921   8.821   3.133   0.787
 2638SOL    HW2 9922   8.860   3.186   0.651
 2639SOL     OW 9923   5.785   3.275   4.835
 2639SOL    HW1 9924   5.870   3.266   4.792
 2639SOL    HW2 9925   5.735   3.198   4.805
 2640SOL     OW 9926   2.403   3.827   8.976
 2640SOL    HW1 9927   2.480   3.805   8.923
 2640SOL    HW2 9928   2.379   3.744   9.018
 2641SOL     OW 9929  10.335   5.263   3.498
 2641SOL    HW1 9930  10.358   5.214   3.577
 2641SOL    HW2 9931  10.380   5.347   3.507
 2642SOL     OW 9932   0.059   6.058   3.064
 2642SOL    HW1 9933   0.155   6.056   3.064
 2642SOL    HW2 9934   0.033   5.971   3.096
 2643SOL     OW 9935   7.088   1.055   7.346
 2643SOL    HW1 9936   7.158   1.044   7.410
 2643SOL    HW2 9937   7.126   1.110   7.277
 2644SOL     OW 9938   9.283   7.308   9.386
 2644SOL    HW1 9939   9.234   7.275   9.310
 2644SOL    HW2 9940   9.240   7.268   9.461
 2645SOL     OW 9941   6.216   2.207   0.432
 2645SOL    HW1 9942   6.254   2.232   0.516
 2645SOL    HW2 9943   6.194   2.114   0.442
 2646SOL     OW 9944  11.099   2.084   8.383
 2646SOL    HW1 9945  11.029   2.085   8.448
 2646SOL    HW2 9946  11.179   2.073   8.434
 2647SOL     OW 9947   1.898   5.439   5.178
 2647SOL    HW1 9948   1.873   5.375   5.111
 2647SOL    HW2 9949   1.957   5.391   5.236
 2648SOL     OW 9950  10.024   3.530   6.748
 2648SOL    HW1 9951  10.087   3.480   6.800
 2648SOL    HW2 9952  10.062   3.617   6.741
 2649SOL     OW 9953  10.477   5.467   9.471
 2649SOL    HW1 9954  10.439   5.379   9.461
 2649SOL    HW2 9955  10.403   5.527   9.458
 2650SOL     OW 9956   9.010   3.701   6.684
 2650SOL    HW1 9957   9.084   3.739   6.636
 2650SOL    HW2 9958   8.999   3.614   6.644
 2651SOL     OW 9959   4.531   3.591   7.865
 2651SOL    HW1 9960   4.495   3.619   7.781
 2651SOL    HW2 9961   4.552   3.498   7.852
 2652SOL     OW 9962   1.692   1.688   4.590
 2652SOL    HW1 9963   1.657   1.619   4.647
 2652SOL    HW2 9964   1.728   1.753   4.650
 2653SOL     OW 9965   0.784   4.094   2.234
 2653SOL    HW1 9966   0.840   4.108   2.310
 2653SOL    HW2 9967   0.826   4.144   2.163
 2654SOL     OW 9968   0.040  10.318   0.009
 2654SOL    HW1 9969   0.046  10.294  -0.083
 2654SOL    HW2 9970   0.032  10.413   0.009
 2655SOL     OW 9971  10.392   4.542   5.028
 2655SOL    HW1 9972  10.464   4.540   5.091
 2655SOL    HW2 9973  10.378   4.450   5.005
 2656SOL     OW 9974   1.310   4.285   3.403
 2656SOL    HW1 9975   1.233   4.277   3.347
 2656SOL    HW2 9976   1.284   4.245   3.486
 2657SOL     OW 9977  10.801   5.880   8.022
 2657SOL    HW1 9978  10.796   5.797   8.070
 2657SOL    HW2 9979  10.894   5.891   8.004
 2658SOL     OW 9980   7.517   7.995   3.154
 2658SOL    HW1 9981   7.593   7.938   3.167
 2658SOL    HW2 9982   7.453   7.938   3.111
 2659SOL     OW 9983   1.968   7.517   0.251
 2659SOL    HW1 9984   1.894   7.509   0.311
 2659SOL    HW2 9985   1.934   7.569   0.178
 2660SOL     OW 9986   8.811   3.553  10.047
 2660SOL    HW1 9987   8.816   3.587   9.957
 2660SOL    HW2 9988   8.734   3.594  10.084
 2661SOL     OW 9989   3.752   4.430   0.392
 2661SOL    HW1 9990   3.703   4.495   0.441
 2661SOL    HW2 9991   3.792   4.374   0.458
 2662SOL     OW 9992   0.242   4.184   8.678
 2662SOL    HW1 9993   0.160   4.140   8.702
 2662SOL    HW2 9994   0.301   4.113   8.653
 2663SOL     OW 9995   4.353  11.024   4.103
 2663SOL    HW1 9996   4.261  11.008   4.083
 2663SOL    HW2 9997   4.383  11.082   4.033
 2664SOL     OW 9998   7.773   6.764   2.192
 2664SOL    HW1 9999   7.832   6.837   2.176
 2664SOL    HW210000   7.728   6.751   2.108
 2665SOL     OW10001   4.769   8.365   4.087
 2665SOL    HW110002   4.815   8.330   4.163
 2665SOL    HW210003   4.782   8.459   4.091
 2666SOL     OW10004   0.197   0.694   0.348
 2666SOL    HW110005   0.131   0.639   0.305
 2666SOL    HW210006   0.193   0.777   0.301
 2667SOL     OW10007   8.036   4.104   0.459
 2667SOL    HW110008   8.104   4.039   0.442
 2667SOL    HW210009   8.069   4.155   0.532
 2668SOL     OW10010   4.676   3.236   7.106
 2668SOL    HW110011   4.583   3.217   7.099
 2668SOL    HW210012   4.681   3.311   7.164
 2669SOL     OW10013   3.074   0.460   2.521
 2669SOL    HW110014   3.030   0.391   2.571
 2669SOL    HW210015   3.157   0.473   2.566
 2670SOL     OW10016   3.600   8.415   0.801
 2670SOL    HW110017   3.658   8.490   0.810
 2670SOL    HW210018   3.559   8.405   0.887
 2671SOL     OW10019   9.088   2.688   1.445
 2671SOL    HW110020   9.100   2.698   1.350
 2671SOL    HW210021   8.995   2.706   1.459
 2672SOL     OW10022  10.173   6.162   0.536
 2672SOL    HW110023  10.157   6.248   0.497
 2672SOL    HW210024  10.267   6.161   0.556
 2673SOL     OW10025   9.341   8.313   6.816
 2673SOL    HW110026   9.363   8.220   6.823
 2673SOL    HW210027   9.424   8.358   6.833
 2674SOL     OW10028   0.209   3.420   2.674
 2674SOL    HW110029   0.249   3.476   2.739
 2674SOL    HW210030   0.118   3.449   2.670
 2675SOL     OW10031   4.325   4.335   0.836
 2675SOL    HW110032   4.276   4.278   0.894
 2675SOL    HW210033   4.292   4.423   0.854
 2676SOL     OW10034   1.456   5.527  10.196
 2676SOL    HW110035   1.513   5.598  10.167
 2676SOL    HW210036   1.434   5.549  10.286
 2677SOL     OW10037   9.642   2.903   5.214
 2677SOL    HW110038   9.607   2.914   5.125
 2677SOL    HW210039   9.737   2.902   5.202
 2678SOL     OW10040   9.114   7.387   3.933
 2678SOL    HW110041   9.080   7.339   3.857
 2678SOL    HW210042   9.103   7.326   4.006
 2679SOL     OW10043   3.391   2.002   4.241
 2679SOL    HW110044   3.381   2.014   4.146
 2679SOL    HW210045   3.312   2.041   4.278
 2680SOL     OW10046   9.006   1.076   2.825
 2680SOL    HW110047   8.931   1.044   2.875
 2680SOL    HW210048   8.970   1.099   2.739
 2681SOL     OW10049   0.952   3.386   5.518
 2681SOL    HW110050   0.883   3.449   5.501
 2681SOL    HW210051   0.907   3.311   5.558
 2682SOL     OW10052   9.959   2.165   4.231
 2682SOL    HW110053  10.049   2.186   4.207
 2682SOL    HW210054   9.914   2.155   4.147
 2683SOL     OW10055   1.045   4.113   1.061
 2683SOL    HW110056   0.984   4.045   1.030
 2683SOL    HW210057   0.989   4.181   1.098
 2684SOL     OW10058   3.364   0.371   4.504
 2684SOL    HW110059   3.430   0.344   4.440
 2684SOL    HW210060   3.409   0.367   4.588
 2685SOL     OW10061   8.052   7.130   2.316
 2685SOL    HW110062   8.052   7.065   2.386
 2685SOL    HW210063   8.138   7.172   2.322
 2686SOL     OW10064   2.742   4.601   3.517
 2686SOL    HW110065   2.807   4.656   3.561
 2686SOL    HW210066   2.791   4.556   3.448
 2687SOL     OW10067   2.158   3.949   9.298
 2687SOL    HW110068   2.064   3.958   9.315
 2687SOL    HW210069   2.176   3.855   9.310
 2688SOL     OW10070   1.286  10.490   1.175
 2688SOL    HW110071   1.216  10.515   1.115
 2688SOL    HW210072   1.269  10.398   1.195
 2689SOL     OW10073   9.429   1.953   1.071
 2689SOL    HW110074   9.498   1.887   1.062
 2689SOL    HW210075   9.418   1.988   0.982
 2690SOL     OW10076   4.411   7.153   5.085
 2690SOL    HW110077   4.495   7.112   5.065
 2690SOL    HW210078   4.433   7.244   5.104
 2691SOL     OW10079  10.934   0.253   6.910
 2691SOL    HW110080  10.896   0.242   6.997
 2691SOL    HW210081  11.010   0.310   6.924
 2692SOL     OW10082   2.823   3.227   1.396
 2692SOL    HW110083   2.844   3.312   1.359
 2692SOL    HW210084   2.802   3.172   1.320
 2693SOL     OW10085   9.391   6.284  10.934
 2693SOL    HW110086   9.410   6.370  10.897
 2693SOL    HW210087   9.342   6.238  10.865
 2694SOL     OW10088   0.752   5.590   0.013
 2694SOL    HW110089   0.739   5.555   0.102
 2694SOL    HW210090   0.829   5.646   0.021
 2695SOL     OW10091   5.409   9.618   7.018
 2695SOL    HW110092   5.362   9.635   7.099
 2695SOL    HW210093   5.457   9.537   7.034
 2696SOL     OW10094   9.328  11.061   2.867
 2696SOL    HW110095   9.261  11.005   2.906
 2696SOL    HW210096   9.385  11.001   2.819
 2697SOL     OW10097   5.101   3.817   9.690
 2697SOL    HW110098   5.122   3.782   9.776
 2697SOL    HW210099   5.126   3.909   9.695
 2698SOL     OW10100   2.821   3.647   8.078
 2698SOL    HW110101   2.788   3.558   8.091
 2698SOL    HW210102   2.768   3.681   8.006
 2699SOL     OW10103   8.006   4.518   3.637
 2699SOL    HW110104   7.916   4.511   3.605
 2699SOL    HW210105   8.018   4.611   3.655
 2700SOL     OW10106   0.847   2.365   5.231
 2700SOL    HW110107   0.874   2.452   5.261
 2700SOL    HW210108   0.798   2.328   5.304
 2701SOL     OW10109   0.117   4.554   1.126
 2701SOL    HW110110   0.174   4.620   1.166
 2701SOL    HW210111   0.038   4.555   1.180
 2702SOL     OW10112   5.556   1.974   1.767
 2702SOL    HW110113   5.479   2.003   1.718
 2702SOL    HW210114   5.629   2.020   1.726
 2703SOL     OW10115   5.971   8.136   4.789
 2703SOL    HW110116   6.043   8.080   4.818
 2703SOL    HW210117   5.893   8.096   4.827
 2704SOL     OW10118   3.776   6.307   3.373
 2704SOL    HW110119   3.745   6.254   3.299
 2704SOL    HW210120   3.699   6.317   3.429
 2705SOL     OW10121   0.315   6.369   2.876
 2705SOL    HW110122   0.397   6.327   2.850
 2705SOL    HW210123   0.288   6.322   2.955
 2706SOL     OW10124   4.778   4.700   6.504
 2706SOL    HW110125   4.822   4.668   6.583
 2706SOL    HW210126   4.843   4.755   6.461
 2707SOL     OW10127   7.022   0.413   7.416
 2707SOL    HW110128   7.046   0.436   7.505
 2707SOL    HW210129   6.964   0.483   7.388
 2708SOL     OW10130  10.909   0.048  10.690
 2708SOL    HW110131  10.840   0.082  10.747
 2708SOL    HW210132  10.963   0.124  10.668
 2709SOL     OW10133   3.081   9.901   8.956
 2709SOL    HW110134   3.125   9.972   9.001
 2709SOL    HW210135   2.991   9.903   8.989
 2710SOL     OW10136   7.595   0.928   4.028
 2710SOL    HW110137   7.619   0.932   3.935
 2710SOL    HW210138   7.592   1.019   4.056
 2711SOL     OW10139   0.423   5.807   9.564
 2711SOL    HW110140   0.368   5.758   9.503
 2711SOL    HW210141   0.511   5.801   9.527
 2712SOL     OW10142   7.485   2.602   3.236
 2712SOL    HW110143   7.551   2.671   3.226
 2712SOL    HW210144   7.406   2.638   3.195
 2713SOL     OW10145   2.523   3.954   5.116
 2713SOL    HW110146   2.590   3.897   5.154
 2713SOL    HW210147   2.532   3.941   5.021
 2714SOL     OW10148   0.449  10.777   3.476
 2714SOL    HW110149   0.372  10.782   3.420
 2714SOL    HW210150   0.511  10.724   3.426
 2715SOL     OW10151   5.284   4.178   2.465
 2715SOL    HW110152   5.261   4.229   2.387
 2715SOL    HW210153   5.267   4.236   2.538
 2716SOL     OW10154   9.626  10.217  10.228
 2716SOL    HW110155   9.625  10.312  10.234
 2716SOL    HW210156   9.549  10.195  10.175
 2717SOL     OW10157   0.838  10.452   3.770
 2717SOL    HW110158   0.833  10.357   3.761
 2717SOL    HW210159   0.836  10.467   3.864
 2718SOL     OW10160  10.453   6.171  10.824
 2718SOL    HW110161  10.548   6.180  10.818
 2718SOL    HW210162  10.419   6.235  10.761
 2719SOL     OW10163   4.806  10.352   2.598
 2719SOL    HW110164   4.785  10.358   2.505
 2719SOL    HW210165   4.740  10.293   2.633
 2720SOL     OW10166   9.596   0.715   0.576
 2720SOL    HW110167   9.689   0.703   0.557
 2720SOL    HW210168   9.561   0.626   0.580
 2721SOL     OW10169   9.834   2.353   1.011
 2721SOL    HW110170   9.817   2.266   1.047
 2721SOL    HW210171   9.792   2.413   1.072
 2722SOL     OW10172   8.200   8.958   7.982
 2722SOL    HW110173   8.251   8.894   8.032
 2722SOL    HW210174   8.169   9.021   8.047
 2723SOL     OW10175   2.866   9.612   2.916
 2723SOL    HW110176   2.807   9.652   2.852
 2723SOL    HW210177   2.953   9.641   2.889
 2724SOL     OW10178   0.580   1.558   9.245
 2724SOL    HW110179   0.494   1.592   9.269
 2724SOL    HW210180   0.636   1.577   9.320
 2725SOL     OW10181   5.757   1.902   9.665
 2725SOL    HW110182   5.668   1.904   9.699
 2725SOL    HW210183   5.777   1.993   9.643
 2726SOL     OW10184   8.775  10.561   0.957
 2726SOL    HW110185   8.842  10.556   0.889
 2726SOL    HW210186   8.754  10.470   0.977
 2727SOL     OW10187   9.364   8.197   9.457
 2727SOL    HW110188   9.295   8.219   9.394
 2727SOL    HW210189   9.431   8.264   9.443
 2728SOL     OW10190   0.873   5.762   0.543
 2728SOL    HW110191   0.824   5.754   0.625
 2728SOL    HW210192   0.813   5.806   0.483
 2729SOL     OW10193   7.973   6.902   3.134
 2729SOL    HW110194   7.984   6.812   3.102
 2729SOL    HW210195   7.957   6.892   3.228
 2730SOL     OW10196   0.014   5.358   0.949
 2730SOL    HW110197   0.026   5.274   0.904
 2730SOL    HW210198  -0.081   5.373   0.946
 2731SOL     OW10199   3.813   5.795  10.095
 2731SOL    HW110200   3.827   5.786  10.189
 2731SOL    HW210201   3.901   5.803  10.058
 2732SOL     OW10202   8.490   8.409   3.132
 2732SOL    HW110203   8.572   8.359   3.135
 2732SOL    HW210204   8.422   8.342   3.131
 2733SOL     OW10205   2.448   2.218   4.598
 2733SOL    HW110206   2.456   2.175   4.683
 2733SOL    HW210207   2.526   2.273   4.591
 2734SOL     OW10208   9.502   2.925  10.029
 2734SOL    HW110209   9.420   2.974  10.021
 2734SOL    HW210210   9.496   2.882  10.114
 2735SOL     OW10211  10.520   9.757   1.093
 2735SOL    HW110212  10.518   9.663   1.112
 2735SOL    HW210213  10.452   9.769   1.027
 2736SOL     OW10214   3.008   6.329   5.307
 2736SOL    HW110215   3.039   6.419   5.310
 2736SOL    HW210216   3.071   6.284   5.251
 2737SOL     OW10217   5.254   6.158   8.192
 2737SOL    HW110218   5.235   6.174   8.099
 2737SOL    HW210219   5.179   6.108   8.224
 2738SOL     OW10220   6.323   2.514   2.466
 2738SOL    HW110221   6.237   2.511   2.424
 2738SOL    HW210222   6.368   2.436   2.433
 2739SOL     OW10223   7.075   5.518   1.188
 2739SOL    HW110224   7.132   5.588   1.156
 2739SOL    HW210225   7.023   5.493   1.111
 2740SOL     OW10226   5.905   7.565   4.162
 2740SOL    HW110227   5.901   7.514   4.243
 2740SOL    HW210228   5.996   7.557   4.134
 2741SOL     OW10229   1.846   6.875   1.275
 2741SOL    HW110230   1.938   6.896   1.258
 2741SOL    HW210231   1.806   6.959   1.297
 2742SOL     OW10232   5.329   4.224   9.017
 2742SOL    HW110233   5.303   4.140   8.978
 2742SOL    HW210234   5.421   4.212   9.040
 2743SOL     OW10235   3.093   4.451  10.562
 2743SOL    HW110236   3.086   4.365  10.604
 2743SOL    HW210237   3.041   4.509  10.617
 2744SOL     OW10238   3.791   5.461   4.354
 2744SOL    HW110239   3.787   5.529   4.286
 2744SOL    HW210240   3.762   5.381   4.309
 2745SOL     OW10241   7.557   0.713   0.353
 2745SOL    HW110242   7.528   0.804   0.349
 2745SOL    HW210243   7.476   0.662   0.359
 2746SOL     OW10244   4.172   1.343   5.932
 2746SOL    HW110245   4.221   1.423   5.913
 2746SOL    HW210246   4.213   1.276   5.877
 2747SOL     OW10247  10.956   2.492   4.589
 2747SOL    HW110248  11.026   2.519   4.648
 2747SOL    HW210249  10.983   2.405   4.559
 2748SOL     OW10250   2.393   5.869   9.179
 2748SOL    HW110251   2.387   5.798   9.243
 2748SOL    HW210252   2.302   5.888   9.156
 2749SOL     OW10253   3.643   4.678   3.281
 2749SOL    HW110254   3.729   4.649   3.312
 2749SOL    HW210255   3.583   4.608   3.308
 2750SOL     OW10256   6.004   2.782   6.871
 2750SOL    HW110257   6.047   2.852   6.822
 2750SOL    HW210258   5.987   2.820   6.957
 2751SOL     OW10259   9.711   8.489   8.874
 2751SOL    HW110260   9.651   8.493   8.799
 2751SOL    HW210261   9.788   8.538   8.845
 2752SOL     OW10262   6.703   0.724   6.411
 2752SOL    HW110263   6.685   0.782   6.337
 2752SOL    HW210264   6.798   0.730   6.424
 2753SOL     OW10265   7.974   7.296   9.954
 2753SOL    HW110266   7.935   7.247  10.026
 2753SOL    HW210267   7.900   7.321   9.899
 2754SOL     OW10268  11.002   0.320  10.921
 2754SOL    HW110269  10.964   0.236  10.946
 2754SOL    HW210270  11.096   0.303  10.916
 2755SOL     OW10271   2.491   7.338   5.302
 2755SOL    HW110272   2.426   7.371   5.364
 2755SOL    HW210273   2.507   7.248   5.330
 2756SOL     OW10274   3.708   6.413   1.079
 2756SOL    HW110275   3.744   6.371   1.157
 2756SOL    HW210276   3.735   6.504   1.085
 2757SOL     OW10277   3.664   5.236   4.154
 2757SOL    HW110278   3.588   5.223   4.210
 2757SOL    HW210279   3.663   5.329   4.133
 2758SOL     OW10280  10.228   4.902   3.327
 2758SOL    HW110281  10.168   4.830   3.307
 2758SOL    HW210282  10.187   4.947   3.400
 2759SOL     OW10283   3.732   0.266   6.061
 2759SOL    HW110284   3.776   0.250   5.977
 2759SOL    HW210285   3.728   0.180   6.102
 2760SOL     OW10286   8.168   1.355  10.792
 2760SOL    HW110287   8.142   1.382  10.704
 2760SOL    HW210288   8.251   1.400  10.807
 2761SOL     OW10289   3.819   6.295   1.332
 2761SOL    HW110290   3.735   6.299   1.376
 2761SOL    HW210291   3.875   6.355   1.381
 2762SOL     OW10292   3.577   8.229   0.162
 2762SOL    HW110293   3.673   8.233   0.164
 2762SOL    HW210294   3.554   8.253   0.073
 2763SOL     OW10295   1.166   4.064   2.591
 2763SOL    HW110296   1.244   4.110   2.560
 2763SOL    HW210297   1.172   3.978   2.549
 2764SOL     OW10298   0.637   2.563   3.718
 2764SOL    HW110299   0.628   2.468   3.731
 2764SOL    HW210300   0.723   2.573   3.678
 2765SOL     OW10301   1.733   0.839   5.549
 2765SOL    HW110302   1.826   0.861   5.545
 2765SOL    HW210303   1.729   0.760   5.603
 2766SOL     OW10304   6.448   2.861   2.858
 2766SOL    HW110305   6.419   2.820   2.776
 2766SOL    HW210306   6.535   2.824   2.874
 2767SOL     OW10307   4.420   3.805   5.468
 2767SOL    HW110308   4.360   3.864   5.513
 2767SOL    HW210309   4.478   3.772   5.537
 2768SOL     OW10310   2.485   3.723   4.281
 2768SOL    HW110311   2.425   3.648   4.283
 2768SOL    HW210312   2.566   3.689   4.318
 2769SOL     OW10313   7.276   8.112   0.654
 2769SOL    HW110314   7.345   8.047   0.672
 2769SOL    HW210315   7.319   8.177   0.599
 2770SOL     OW10316   4.407   5.798   9.942
 2770SOL    HW110317   4.497   5.775   9.919
 2770SOL    HW210318   4.360   5.792   9.859
 2771SOL     OW10319   0.004   4.893   7.007
 2771SOL    HW110320   0.067   4.936   6.949
 2771SOL    HW210321  -0.065   4.958   7.020
 2772SOL     OW10322   1.153   3.475   9.658
 2772SOL    HW110323   1.224   3.413   9.675
 2772SOL    HW210324   1.134   3.464   9.564
 2773SOL     OW10325   8.534   8.276   8.859
 2773SOL    HW110326   8.480   8.244   8.931
 2773SOL    HW210327   8.617   8.300   8.899
 2774SOL     OW10328   4.757   6.340   3.389
 2774SOL    HW110329   4.802   6.350   3.473
 2774SOL    HW210330   4.739   6.429   3.360
 2775SOL     OW10331   9.039   2.084   0.077
 2775SOL    HW110332   9.019   2.006   0.025
 2775SOL    HW210333   8.957   2.132   0.080
 2776SOL     OW10334  10.217   2.332   3.484
 2776SOL    HW110335  10.166   2.399   3.530
 2776SOL    HW210336  10.263   2.380   3.415
 2777SOL     OW10337   1.225   1.480   0.665
 2777SOL    HW110338   1.268   1.489   0.580
 2777SOL    HW210339   1.295   1.453   0.724
 2778SOL     OW10340   1.737   8.041   9.764
 2778SOL    HW110341   1.829   8.026   9.743
 2778SOL    HW210342   1.712   7.965   9.817
 2779SOL     OW10343   2.543   3.815   2.807
 2779SOL    HW110344   2.542   3.720   2.818
 2779SOL    HW210345   2.454   3.837   2.781
 2780SOL     OW10346   0.888   0.839   6.473
 2780SOL    HW110347   0.834   0.911   6.505
 2780SOL    HW210348   0.953   0.825   6.541
 2781SOL     OW10349   0.431   9.664   1.140
 2781SOL    HW110350   0.393   9.691   1.223
 2781SOL    HW210351   0.387   9.581   1.119
 2782SOL     OW10352   3.996   6.100   5.968
 2782SOL    HW110353   4.041   6.053   6.039
 2782SOL    HW210354   4.045   6.181   5.957
 2783SOL     OW10355   0.978   3.925   0.329
 2783SOL    HW110356   0.923   3.848   0.342
 2783SOL    HW210357   0.917   3.998   0.324
 2784SOL     OW10358   4.084   3.575   0.985
 2784SOL    HW110359   4.014   3.637   1.004
 2784SOL    HW210360   4.080   3.562   0.890
 2785SOL     OW10361   7.911  10.322   7.004
 2785SOL    HW110362   7.893  10.414   7.023
 2785SOL    HW210363   7.999  10.322   6.966
 2786SOL     OW10364   3.428  10.387   6.026
 2786SOL    HW110365   3.458  10.310   5.977
 2786SOL    HW210366   3.495  10.400   6.093
 2787SOL     OW10367   9.652   4.572   2.113
 2787SOL    HW110368   9.733   4.589   2.161
 2787SOL    HW210369   9.582   4.589   2.176
 2788SOL     OW10370   0.599  10.704   0.403
 2788SOL    HW110371   0.505  10.684   0.401
 2788SOL    HW210372   0.612  10.765   0.330
 2789SOL     OW10373   1.412   3.159   9.958
 2789SOL    HW110374   1.385   3.083   9.905
 2789SOL    HW210375   1.502   3.176   9.929
 2790SOL     OW10376   8.783   8.998   5.313
 2790SOL    HW110377   8.739   8.937   5.254
 2790SOL    HW210378   8.875   8.969   5.313
 2791SOL     OW10379   0.230   8.085   3.278
 2791SOL    HW110380   0.223   7.993   3.303
 2791SOL    HW210381   0.181   8.132   3.345
 2792SOL     OW10382   6.933   6.685   2.975
 2792SOL    HW110383   6.849   6.709   2.937
 2792SOL    HW210384   6.932   6.589   2.976
 2793SOL     OW10385   1.663   0.277   8.558
 2793SOL    HW110386   1.695   0.211   8.496
 2793SOL    HW210387   1.721   0.269   8.633
 2794SOL     OW10388   0.471   6.632   7.713
 2794SOL    HW110389   0.415   6.578   7.657
 2794SOL    HW210390   0.548   6.578   7.729
 2795SOL     OW10391   3.224   5.839   9.673
 2795SOL    HW110392   3.207   5.856   9.580
 2795SOL    HW210393   3.241   5.925   9.711
 2796SOL     OW10394   6.585   5.807   4.377
 2796SOL    HW110395   6.612   5.721   4.410
 2796SOL    HW210396   6.665   5.844   4.338
 2797SOL     OW10397   2.242   5.487   6.757
 2797SOL    HW110398   2.290   5.449   6.683
 2797SOL    HW210399   2.253   5.423   6.827
 2798SOL     OW10400   8.045   6.404   7.959
 2798SOL    HW110401   8.105   6.438   8.025
 2798SOL    HW210402   8.088   6.325   7.926
 2799SOL     OW10403   5.211   2.937   4.379
 2799SOL    HW110404   5.270   2.863   4.362
 2799SOL    HW210405   5.233   2.966   4.467
 2800SOL     OW10406   1.657   3.972   0.524
 2800SOL    HW110407   1.571   4.014   0.523
 2800SOL    HW210408   1.699   4.001   0.443
 2801SOL     OW10409   7.593   5.703   7.767
 2801SOL    HW110410   7.642   5.627   7.800
 2801SOL    HW210411   7.647   5.778   7.791
 2802SOL     OW10412   7.888   7.485   3.903
 2802SOL    HW110413   7.829   7.419   3.939
 2802SOL    HW210414   7.974   7.462   3.938
 2803SOL     OW10415   1.319   1.774   0.414
 2803SOL    HW110416   1.374   1.775   0.492
 2803SOL    HW210417   1.285   1.863   0.406
 2804SOL     OW10418   9.108  11.083   7.874
 2804SOL    HW110419   9.130  10.990   7.875
 2804SOL    HW210420   9.193  11.127   7.872
 2805SOL     OW10421  10.695  10.235   4.096
 2805SOL    HW110422  10.784  10.266   4.080
 2805SOL    HW210423  10.652  10.307   4.142
 2806SOL     OW10424   1.367   3.808   8.242
 2806SOL    HW110425   1.291   3.809   8.184
 2806SOL    HW210426   1.409   3.893   8.228
 2807SOL     OW10427   1.419   0.076   2.314
 2807SOL    HW110428   1.387   0.024   2.239
 2807SOL    HW210429   1.514   0.068   2.309
 2808SOL     OW10430   8.900   0.107   0.132
 2808SOL    HW110431   8.831   0.173   0.125
 2808SOL    HW210432   8.859   0.034   0.178
 2809SOL     OW10433  10.541   1.940   1.214
 2809SOL    HW110434  10.595   1.967   1.140
 2809SOL    HW210435  10.494   2.019   1.240
 2810SOL     OW10436   5.984   5.091   3.873
 2810SOL    HW110437   5.981   5.146   3.951
 2810SOL    HW210438   6.029   5.144   3.807
 2811SOL     OW10439   7.597   7.903   1.259
 2811SOL    HW110440   7.571   7.993   1.277
 2811SOL    HW210441   7.579   7.855   1.340
 2812SOL     OW10442   6.934   9.007  10.074
 2812SOL    HW110443   6.954   9.022  10.166
 2812SOL    HW210444   7.016   9.027  10.028
 2813SOL     OW10445   9.557   3.688   2.167
 2813SOL    HW110446   9.618   3.614   2.175
 2813SOL    HW210447   9.609   3.765   2.191
 2814SOL     OW10448   5.311   3.826   3.184
 2814SOL    HW110449   5.337   3.915   3.206
 2814SOL    HW210450   5.240   3.806   3.245
 2815SOL     OW10451   7.904   4.680   4.011
 2815SOL    HW110452   7.862   4.622   4.074
 2815SOL    HW210453   7.834   4.705   3.950
 2816SOL     OW10454   8.013   7.091   4.246
 2816SOL    HW110455   7.949   7.042   4.194
 2816SOL    HW210456   8.097   7.071   4.204
 2817SOL     OW10457   5.060  10.816   9.474
 2817SOL    HW110458   5.102  10.807   9.559
 2817SOL    HW210459   5.130  10.843   9.415
 2818SOL     OW10460   9.936   1.130   4.648
 2818SOL    HW110461   9.887   1.150   4.728
 2818SOL    HW210462   9.876   1.154   4.577
 2819SOL     OW10463   4.881   7.080   9.018
 2819SOL    HW110464   4.883   7.030   9.099
 2819SOL    HW210465   4.961   7.133   9.020
 2820SOL     OW10466   8.122   1.248   3.498
 2820SOL    HW110467   8.162   1.178   3.446
 2820SOL    HW210468   8.152   1.328   3.456
 2821SOL     OW10469   2.580   3.139   5.027
 2821SOL    HW110470   2.655   3.198   5.036
 2821SOL    HW210471   2.613   3.067   4.972
 2822SOL     OW10472   7.529   3.068   9.298
 2822SOL    HW110473   7.547   3.118   9.218
 2822SOL    HW210474   7.596   2.999   9.299
 2823SOL     OW10475   2.572   5.306   1.693
 2823SOL    HW110476   2.636   5.263   1.636
 2823SOL    HW210477   2.619   5.380   1.730
 2824SOL     OW10478   8.214   9.074   2.233
 2824SOL    HW110479   8.148   9.011   2.204
 2824SOL    HW210480   8.196   9.087   2.326
 2825SOL     OW10481   4.356   6.697   8.035
 2825SOL    HW110482   4.278   6.679   7.983
 2825SOL    HW210483   4.421   6.727   7.971
 2826SOL     OW10484   2.052   2.323   3.002
 2826SOL    HW110485   2.076   2.370   3.082
 2826SOL    HW210486   2.122   2.344   2.940
 2827SOL     OW10487   2.939   4.123   1.089
 2827SOL    HW110488   2.863   4.086   1.044
 2827SOL    HW210489   3.014   4.093   1.037
 2828SOL     OW10490   0.630   0.898   2.624
 2828SOL    HW110491   0.595   0.850   2.699
 2828SOL    HW210492   0.662   0.980   2.661
 2829SOL     OW10493  10.682   0.825   3.226
 2829SOL    HW110494  10.652   0.903   3.272
 2829SOL    HW210495  10.653   0.837   3.135
 2830SOL     OW10496   5.796   0.212   9.042
 2830SOL    HW110497   5.848   0.254   8.973
 2830SOL    HW210498   5.861   0.168   9.097
 2831SOL     OW10499   5.128   3.973   2.780
 2831SOL    HW110500   5.222   3.965   2.799
 2831SOL    HW210501   5.111   4.067   2.784
 2832SOL     OW10502   9.630   7.621   7.222
 2832SOL    HW110503   9.605   7.548   7.165
 2832SOL    HW210504   9.707   7.589   7.269
 2833SOL     OW10505   3.678   5.122   8.739
 2833SOL    HW110506   3.770   5.130   8.764
 2833SOL    HW210507   3.632   5.185   8.794
 2834SOL     OW10508   9.782   4.463   5.800
 2834SOL    HW110509   9.817   4.503   5.720
 2834SOL    HW210510   9.696   4.503   5.811
 2835SOL     OW10511   9.366   6.111   9.780
 2835SOL    HW110512   9.382   6.135   9.871
 2835SOL    HW210513   9.343   6.018   9.783
 2836SOL     OW10514  10.886   3.763   3.890
 2836SOL    HW110515  10.944   3.714   3.831
 2836SOL    HW210516  10.836   3.820   3.831
 2837SOL     OW10517   2.009   5.547   1.027
 2837SOL    HW110518   1.950   5.473   1.013
 2837SOL    HW210519   1.989   5.578   1.115
 2838SOL     OW10520   7.169   1.080   7.002
 2838SOL    HW110521   7.159   1.079   6.906
 2838SOL    HW210522   7.097   1.026   7.034
 2839SOL     OW10523   7.691   3.308   3.547
 2839SOL    HW110524   7.655   3.396   3.538
 2839SOL    HW210525   7.687   3.289   3.640
 2840SOL     OW10526   9.040   5.821   8.234
 2840SOL    HW110527   9.031   5.736   8.190
 2840SOL    HW210528   9.133   5.842   8.226
 2841SOL     OW10529   8.444   5.144   7.181
 2841SOL    HW110530   8.539   5.142   7.166
 2841SOL    HW210531   8.406   5.125   7.095
 2842SOL     OW10532   1.758   3.208   4.404
 2842SOL    HW110533   1.797   3.126   4.436
 2842SOL    HW210534   1.669   3.183   4.378
 2843SOL     OW10535   9.669   4.046   4.832
 2843SOL    HW110536   9.736   4.009   4.774
 2843SOL    HW210537   9.605   4.084   4.772
 2844SOL     OW10538   4.906  10.082   6.724
 2844SOL    HW110539   4.900  10.174   6.701
 2844SOL    HW210540   4.888  10.079   6.818
 2845SOL     OW10541   6.017   1.976  10.388
 2845SOL    HW110542   5.949   1.929  10.339
 2845SOL    HW210543   5.973   2.008  10.466
 2846SOL     OW10544   0.517   3.673   0.537
 2846SOL    HW110545   0.486   3.703   0.622
 2846SOL    HW210546   0.469   3.591   0.521
 2847SOL     OW10547   8.603   1.492   7.591
 2847SOL    HW110548   8.570   1.561   7.648
 2847SOL    HW210549   8.626   1.420   7.650
 2848SOL     OW10550  10.398   1.956   3.559
 2848SOL    HW110551  10.341   2.033   3.558
 2848SOL    HW210552  10.394   1.922   3.469
 2849SOL     OW10553   3.867   1.381   2.017
 2849SOL    HW110554   3.889   1.473   2.029
 2849SOL    HW210555   3.947   1.334   2.041
 2850SOL     OW10556   0.249   2.437   2.271
 2850SOL    HW110557   0.267   2.362   2.327
 2850SOL    HW210558   0.300   2.508   2.308
 2851SOL     OW10559   4.549   9.550   4.341
 2851SOL    HW110560   4.490   9.509   4.404
 2851SOL    HW210561   4.634   9.508   4.356
 2852SOL     OW10562   4.292   4.405   1.550
 2852SOL    HW110563   4.215   4.355   1.577
 2852SOL    HW210564   4.262   4.456   1.475
 2853SOL     OW10565   0.921   6.457   7.903
 2853SOL    HW110566   0.938   6.549   7.885
 2853SOL    HW210567   0.874   6.457   7.986
 2854SOL     OW10568   4.532  10.519   9.527
 2854SOL    HW110569   4.509  10.565   9.446
 2854SOL    HW210570   4.590  10.580   9.573
 2855SOL     OW10571   5.759   2.313   7.296
 2855SOL    HW110572   5.737   2.352   7.211
 2855SOL    HW210573   5.748   2.219   7.282
 2856SOL     OW10574   2.668   6.301  10.671
 2856SOL    HW110575   2.593   6.349  10.705
 2856SOL    HW210576   2.675   6.224  10.727
 2857SOL     OW10577   3.256   9.334   3.025
 2857SOL    HW110578   3.284   9.410   2.974
 2857SOL    HW210579   3.239   9.266   2.959
 2858SOL     OW10580   6.318   5.824   1.153
 2858SOL    HW110581   6.378   5.871   1.211
 2858SOL    HW210582   6.315   5.876   1.073
 2859SOL     OW10583   6.706   5.568   7.901
 2859SOL    HW110584   6.747   5.539   7.982
 2859SOL    HW210585   6.665   5.489   7.865
 2860SOL     OW10586   0.919   2.447   1.614
 2860SOL    HW110587   0.919   2.497   1.532
 2860SOL    HW210588   0.954   2.507   1.679
 2861SOL     OW10589  11.032   7.165   8.904
 2861SOL    HW110590  11.078   7.175   8.987
 2861SOL    HW210591  10.996   7.076   8.907
 2862SOL     OW10592   2.252  10.544   6.209
 2862SOL    HW110593   2.277  10.633   6.183
 2862SOL    HW210594   2.272  10.491   6.132
 2863SOL     OW10595   5.883   9.710   1.663
 2863SOL    HW110596   5.927   9.759   1.594
 2863SOL    HW210597   5.917   9.621   1.654
 2864SOL     OW10598   2.403   0.028   4.157
 2864SOL    HW110599   2.480  -0.015   4.194
 2864SOL    HW210600   2.339  -0.043   4.147
 2865SOL     OW10601   4.693   4.403   0.566
 2865SOL    HW110602   4.623   4.434   0.508
 2865SOL    HW210603   4.655   4.328   0.612
 2866SOL     OW10604   7.199   6.136   0.151
 2866SOL    HW110605   7.121   6.089   0.122
 2866SOL    HW210606   7.245   6.073   0.207
 2867SOL     OW10607  10.401   6.306   8.490
 2867SOL    HW110608  10.352   6.238   8.442
 2867SOL    HW210609  10.335   6.350   8.544
 2868SOL     OW10610   2.491  10.170   3.022
 2868SOL    HW110611   2.426  10.110   3.057
 2868SOL    HW210612   2.475  10.252   3.068
 2869SOL     OW10613   9.656   4.300   0.367
 2869SOL    HW110614   9.662   4.259   0.453
 2869SOL    HW210615   9.708   4.243   0.310
 2870SOL     OW10616   9.798   8.313   9.641
 2870SOL    HW110617   9.717   8.364   9.639
 2870SOL    HW210618   9.796   8.261   9.560
 2871SOL     OW10619   1.958   4.144   3.702
 2871SOL    HW110620   1.952   4.093   3.621
 2871SOL    HW210621   1.982   4.080   3.769
 2872SOL     OW10622   1.273   1.848   1.992
 2872SOL    HW110623   1.358   1.819   1.960
 2872SOL    HW210624   1.290   1.878   2.081
 2873SOL     OW10625   9.095   7.260   7.864
 2873SOL    HW110626   9.145   7.191   7.908
 2873SOL    HW210627   9.148   7.339   7.876
 2874SOL     OW10628   0.335   3.608   3.177
 2874SOL    HW110629   0.367   3.566   3.257
 2874SOL    HW210630   0.359   3.700   3.186
 2875SOL     OW10631   0.618   9.024   0.076
 2875SOL    HW110632   0.607   9.073  -0.005
 2875SOL    HW210633   0.653   8.939   0.049
 2876SOL     OW10634   1.211   6.490   1.553
 2876SOL    HW110635   1.210   6.408   1.502
 2876SOL    HW210636   1.194   6.462   1.643
 2877SOL     OW10637   4.835   7.847   2.057
 2877SOL    HW110638   4.913   7.889   2.020
 2877SOL    HW210639   4.776   7.919   2.078
 2878SOL     OW10640   7.491  10.357   5.010
 2878SOL    HW110641   7.405  10.387   5.038
 2878SOL    HW210642   7.545  10.436   5.011
 2879SOL     OW10643   6.207   1.123   0.258
 2879SOL    HW110644   6.138   1.159   0.313
 2879SOL    HW210645   6.289   1.157   0.294
 2880SOL     OW10646   5.194   1.000   4.187
 2880SOL    HW110647   5.253   0.934   4.149
 2880SOL    HW210648   5.237   1.026   4.268
 2881SOL     OW10649   7.450   6.902   1.802
 2881SOL    HW110650   7.523   6.948   1.761
 2881SOL    HW210651   7.372   6.943   1.764
 2882SOL     OW10652   1.933   5.337   4.828
 2882SOL    HW110653   1.969   5.415   4.786
 2882SOL    HW210654   2.010   5.288   4.858
 2883SOL     OW10655   7.147   0.353   0.604
 2883SOL    HW110656   7.052   0.356   0.610
 2883SOL    HW210657   7.166   0.268   0.563
 2884SOL     OW10658   3.067   6.734   7.571
 2884SOL    HW110659   3.073   6.784   7.652
 2884SOL    HW210660   3.067   6.800   7.502
 2885SOL     OW10661   8.860   7.979   5.075
 2885SOL    HW110662   8.879   8.046   5.140
 2885SOL    HW210663   8.829   8.028   4.999
 2886SOL     OW10664   6.761   7.038   6.557
 2886SOL    HW110665   6.837   7.047   6.614
 2886SOL    HW210666   6.791   7.070   6.472
 2887SOL     OW10667  10.937   2.126   7.208
 2887SOL    HW110668  10.919   2.217   7.230
 2887SOL    HW210669  10.954   2.127   7.113
 2888SOL     OW10670   6.222   6.196   6.014
 2888SOL    HW110671   6.285   6.126   6.033
 2888SOL    HW210672   6.262   6.275   6.050
 2889SOL     OW10673   4.398   4.960   3.178
 2889SOL    HW110674   4.318   5.009   3.158
 2889SOL    HW210675   4.426   4.992   3.263
 2890SOL     OW10676   4.223   2.888   8.067
 2890SOL    HW110677   4.208   2.881   7.972
 2890SOL    HW210678   4.263   2.974   8.079
 2891SOL     OW10679   1.330   5.404   9.200
 2891SOL    HW110680   1.326   5.453   9.118
 2891SOL    HW210681   1.424   5.394   9.217
 2892SOL     OW10682   9.122   6.574   3.593
 2892SOL    HW110683   9.054   6.637   3.572
 2892SOL    HW210684   9.076   6.503   3.638
 2893SOL     OW10685   5.748   5.805   3.285
 2893SOL    HW110686   5.739   5.863   3.360
 2893SOL    HW210687   5.833   5.762   3.298
 2894SOL     OW10688   0.636   8.346   5.773
 2894SOL    HW110689   0.722   8.310   5.749
 2894SOL    HW210690   0.584   8.336   5.693
 2895SOL     OW10691   2.931   2.545   1.535
 2895SOL    HW110692   2.875   2.615   1.569
 2895SOL    HW210693   2.870   2.482   1.495
 2896SOL     OW10694   2.303   0.177   0.218
 2896SOL    HW110695   2.273   0.088   0.238
 2896SOL    HW210696   2.337   0.210   0.300
 2897SOL     OW10697   3.453   6.052   6.544
 2897SOL    HW110698   3.470   6.117   6.612
 2897SOL    HW210699   3.449   5.968   6.591
 2898SOL     OW10700   1.860   3.050   3.569
 2898SOL    HW110701   1.822   3.038   3.656
 2898SOL    HW210702   1.863   3.145   3.557
 2899SOL     OW10703   7.293   4.152   0.607
 2899SOL    HW110704   7.343   4.197   0.674
 2899SOL    HW210705   7.218   4.209   0.590
 2900SOL     OW10706   2.844  10.416   9.718
 2900SOL    HW110707   2.830  10.371   9.635
 2900SOL    HW210708   2.927  10.463   9.706
 2901SOL     OW10709   8.415   5.167   9.732
 2901SOL    HW110710   8.378   5.170   9.820
 2901SOL    HW210711   8.483   5.100   9.737
 2902SOL     OW10712   7.131  10.659   1.265
 2902SOL    HW110713   7.067  10.711   1.314
 2902SOL    HW210714   7.125  10.693   1.175
 2903SOL     OW10715   8.815   6.284   4.674
 2903SOL    HW110716   8.871   6.206   4.681
 2903SOL    HW210717   8.813   6.320   4.762
 2904SOL     OW10718   0.142   5.087   1.653
 2904SOL    HW110719   0.059   5.046   1.626
 2904SOL    HW210720   0.139   5.085   1.748
 2905SOL     OW10721   3.535   5.390   4.874
 2905SOL    HW110722   3.622   5.406   4.911
 2905SOL    HW210723   3.538   5.432   4.788
 2906SOL     OW10724   0.938   2.862   1.825
 2906SOL    HW110725   0.901   2.895   1.906
 2906SOL    HW210726   1.032   2.874   1.835
 2907SOL     OW10727   8.690   5.164   5.225
 2907SOL    HW110728   8.730   5.250   5.234
 2907SOL    HW210729   8.597   5.182   5.210
 2908SOL     OW10730   3.341   5.567   3.445
 2908SOL    HW110731   3.399   5.581   3.370
 2908SOL    HW210732   3.395   5.586   3.521
 2909SOL     OW10733   6.580   7.107   0.686
 2909SOL    HW110734   6.580   7.175   0.619
 2909SOL    HW210735   6.566   7.153   0.768
 2910SOL     OW10736   1.956   5.512   2.677
 2910SOL    HW110737   1.987   5.559   2.754
 2910SOL    HW210738   1.998   5.556   2.603
 2911SOL     OW10739   8.819   3.904   4.567
 2911SOL    HW110740   8.765   3.979   4.590
 2911SOL    HW210741   8.757   3.832   4.558
 2912SOL     OW10742  10.646   4.697   4.438
 2912SOL    HW110743  10.683   4.769   4.387
 2912SOL    HW210744  10.587   4.653   4.377
 2913SOL     OW10745   1.893   4.406   9.977
 2913SOL    HW110746   1.937   4.450  10.050
 2913SOL    HW210747   1.809   4.377  10.013
 2914SOL     OW10748   4.140   1.340   0.325
 2914SOL    HW110749   4.076   1.397   0.283
 2914SOL    HW210750   4.166   1.279   0.256
 2915SOL     OW10751   4.389   2.304   1.590
 2915SOL    HW110752   4.423   2.336   1.506
 2915SOL    HW210753   4.309   2.257   1.567
 2916SOL     OW10754   6.073   4.193   2.686
 2916SOL    HW110755   6.155   4.150   2.709
 2916SOL    HW210756   6.031   4.132   2.624
 2917SOL     OW10757   7.818   8.552   3.224
 2917SOL    HW110758   7.759   8.535   3.150
 2917SOL    HW210759   7.901   8.512   3.198
 2918SOL     OW10760   8.434   3.577   0.415
 2918SOL    HW110761   8.434   3.578   0.319
 2918SOL    HW210762   8.467   3.663   0.440
 2919SOL     OW10763   5.676   5.126   9.231
 2919SOL    HW110764   5.610   5.134   9.162
 2919SOL    HW210765   5.637   5.167   9.308
 2920SOL     OW10766   2.700   1.791   7.629
 2920SOL    HW110767   2.735   1.871   7.667
 2920SOL    HW210768   2.775   1.750   7.586
 2921SOL     OW10769   1.030   5.034   1.839
 2921SOL    HW110770   1.094   5.065   1.903
 2921SOL    HW210771   1.071   4.956   1.800
 2922SOL     OW10772   9.469   7.097   2.671
 2922SOL    HW110773   9.401   7.109   2.605
 2922SOL    HW210774   9.466   7.176   2.724
 2923SOL     OW10775   8.247   7.258   4.103
 2923SOL    HW110776   8.252   7.168   4.137
 2923SOL    HW210777   8.208   7.248   4.016
 2924SOL     OW10778   4.026   5.437   3.410
 2924SOL    HW110779   4.028   5.343   3.389
 2924SOL    HW210780   3.947   5.469   3.367
 2925SOL     OW10781   5.391   6.951  10.991
 2925SOL    HW110782   5.441   6.870  10.976
 2925SOL    HW210783   5.405   7.003  10.912
 2926SOL     OW10784   1.803   5.719   5.701
 2926SOL    HW110785   1.811   5.703   5.607
 2926SOL    HW210786   1.780   5.633   5.737
 2927SOL     OW10787   1.524   4.567   5.541
 2927SOL    HW110788   1.597   4.524   5.586
 2927SOL    HW210789   1.462   4.588   5.610
 2928SOL     OW10790   2.983   0.624   8.238
 2928SOL    HW110791   3.029   0.578   8.167
 2928SOL    HW210792   2.895   0.639   8.204
 2929SOL     OW10793   7.019   5.278   1.994
 2929SOL    HW110794   6.957   5.339   1.954
 2929SOL    HW210795   7.104   5.322   1.988
 2930SOL     OW10796   8.221   2.232   3.917
 2930SOL    HW110797   8.141   2.262   3.959
 2930SOL    HW210798   8.199   2.145   3.883
 2931SOL     OW10799   4.494   5.349   5.850
 2931SOL    HW110800   4.496   5.399   5.931
 2931SOL    HW210801   4.494   5.415   5.781
 2932SOL     OW10802   2.688   8.869   7.355
 2932SOL    HW110803   2.737   8.790   7.331
 2932SOL    HW210804   2.753   8.926   7.396
 2933SOL     OW10805   2.268  10.158   6.702
 2933SOL    HW110806   2.232  10.244   6.722
 2933SOL    HW210807   2.334  10.174   6.634
 2934SOL     OW10808  10.023   1.398   5.973
 2934SOL    HW110809  10.115   1.373   5.961
 2934SOL    HW210810  10.006   1.382   6.066
 2935SOL     OW10811   9.879   5.301   8.540
 2935SOL    HW110812   9.788   5.272   8.538
 2935SOL    HW210813   9.922   5.242   8.602
 2936SOL     OW10814   6.742   5.468   2.132
 2936SOL    HW110815   6.693   5.419   2.066
 2936SOL    HW210816   6.675   5.514   2.182
 2937SOL     OW10817   0.874  10.682  11.006
 2937SOL    HW110818   0.956  10.640  11.033
 2937SOL    HW210819   0.880  10.771  11.040
 2938SOL     OW10820   2.745   7.978   4.321
 2938SOL    HW110821   2.808   8.040   4.357
 2938SOL    HW210822   2.666   8.030   4.306
 2939SOL     OW10823   0.451   3.745   6.898
 2939SOL    HW110824   0.420   3.823   6.852
 2939SOL    HW210825   0.546   3.745   6.885
 2940SOL     OW10826   3.254   8.947   2.449
 2940SOL    HW110827   3.277   8.884   2.380
 2940SOL    HW210828   3.232   8.892   2.524
 2941SOL     OW10829   9.691   5.861   5.798
 2941SOL    HW110830   9.746   5.905   5.734
 2941SOL    HW210831   9.702   5.768   5.778
 2942SOL     OW10832   7.237   5.350   3.561
 2942SOL    HW110833   7.143   5.353   3.544
 2942SOL    HW210834   7.249   5.272   3.615
 2943SOL     OW10835   7.053   0.597   2.048
 2943SOL    HW110836   7.047   0.680   2.095
 2943SOL    HW210837   7.130   0.554   2.085
 2944SOL     OW10838   0.253   0.060   6.200
 2944SOL    HW110839   0.230   0.153   6.197
 2944SOL    HW210840   0.222   0.030   6.285
 2945SOL     OW10841   5.155   3.947   7.755
 2945SOL    HW110842   5.130   4.028   7.711
 2945SOL    HW210843   5.250   3.955   7.768
 2946SOL     OW10844   5.422   3.438   8.555
 2946SOL    HW110845   5.513   3.436   8.586
 2946SOL    HW210846   5.404   3.530   8.538
 2947SOL     OW10847   2.129   0.669   5.062
 2947SOL    HW110848   2.216   0.646   5.030
 2947SOL    HW210849   2.074   0.595   5.037
 2948SOL     OW10850   0.939   0.628   1.070
 2948SOL    HW110851   0.964   0.551   1.018
 2948SOL    HW210852   0.845   0.619   1.082
 2949SOL     OW10853   5.529   1.986   5.564
 2949SOL    HW110854   5.569   1.996   5.650
 2949SOL    HW210855   5.440   1.955   5.582
 2950SOL     OW10856   4.158   1.211   4.662
 2950SOL    HW110857   4.093   1.199   4.592
 2950SOL    HW210858   4.224   1.269   4.624
 2951SOL     OW10859   5.650   1.869   3.678
 2951SOL    HW110860   5.651   1.951   3.727
 2951SOL    HW210861   5.648   1.801   3.745
 2952SOL     OW10862   3.489   5.990   3.328
 2952SOL    HW110863   3.489   6.002   3.233
 2952SOL    HW210864   3.453   5.902   3.341
 2953SOL     OW10865   0.026   8.116   4.272
 2953SOL    HW110866   0.027   8.028   4.311
 2953SOL    HW210867   0.016   8.100   4.178
 2954SOL     OW10868   3.553   6.205   1.450
 2954SOL    HW110869   3.584   6.115   1.435
 2954SOL    HW210870   3.470   6.194   1.496
 2955SOL     OW10871   8.196   9.127   6.592
 2955SOL    HW110872   8.171   9.053   6.536
 2955SOL    HW210873   8.119   9.143   6.646
 2956SOL     OW10874  10.692   4.313   1.133
 2956SOL    HW110875  10.680   4.306   1.038
 2956SOL    HW210876  10.614   4.272   1.170
 2957SOL     OW10877   8.889   3.951   2.929
 2957SOL    HW110878   8.858   4.040   2.940
 2957SOL    HW210879   8.813   3.896   2.948
 2958SOL     OW10880   3.022   2.226   9.486
 2958SOL    HW110881   3.094   2.287   9.502
 2958SOL    HW210882   2.973   2.224   9.568
 2959SOL     OW10883   1.282   8.044   9.610
 2959SOL    HW110884   1.356   8.007   9.561
 2959SOL    HW210885   1.220   7.971   9.617
 2960SOL     OW10886   2.610   4.498   2.328
 2960SOL    HW110887   2.629   4.584   2.365
 2960SOL    HW210888   2.522   4.506   2.292
 2961SOL     OW10889  11.020   0.167   9.968
 2961SOL    HW110890  11.101   0.116   9.968
 2961SOL    HW210891  11.043   0.248   9.923
 2962SOL     OW10892   0.824   0.365   5.776
 2962SOL    HW110893   0.884   0.407   5.837
 2962SOL    HW210894   0.754   0.429   5.763
 2963SOL     OW10895   4.284  10.172   2.433
 2963SOL    HW110896   4.240  10.162   2.348
 2963SOL    HW210897   4.224  10.132   2.495
 2964SOL     OW10898   1.864   9.047   8.299
 2964SOL    HW110899   1.780   9.093   8.297
 2964SOL    HW210900   1.886   9.041   8.392
 2965SOL     OW10901   4.157   0.043   2.901
 2965SOL    HW110902   4.240   0.087   2.919
 2965SOL    HW210903   4.147   0.050   2.806
 2966SOL     OW10904   9.097  10.771   2.157
 2966SOL    HW110905   9.140  10.845   2.115
 2966SOL    HW210906   9.056  10.723   2.085
 2967SOL     OW10907   2.996   3.790   2.176
 2967SOL    HW110908   3.045   3.708   2.181
 2967SOL    HW210909   3.046   3.844   2.115
 2968SOL     OW10910   8.537   5.036  10.938
 2968SOL    HW110911   8.595   5.110  10.957
 2968SOL    HW210912   8.551   5.018  10.845
 2969SOL     OW10913   5.592   0.754   9.514
 2969SOL    HW110914   5.571   0.667   9.548
 2969SOL    HW210915   5.575   0.747   9.420
 2970SOL     OW10916   8.936   8.915   8.998
 2970SOL    HW110917   8.903   8.974   9.066
 2970SOL    HW210918   8.884   8.835   9.008
 2971SOL     OW10919   9.535   2.649   5.127
 2971SOL    HW110920   9.562   2.667   5.217
 2971SOL    HW210921   9.537   2.734   5.084
 2972SOL     OW10922   2.269   4.122   2.910
 2972SOL    HW110923   2.294   4.201   2.863
 2972SOL    HW210924   2.315   4.128   2.993
 2973SOL     OW10925   6.873   5.399   2.628
 2973SOL    HW110926   6.892   5.468   2.565
 2973SOL    HW210927   6.843   5.445   2.706
 2974SOL     OW10928   5.674  10.427   5.986
 2974SOL    HW110929   5.733  10.502   5.980
 2974SOL    HW210930   5.597  10.461   6.032
 2975SOL     OW10931   9.795   8.462   2.485
 2975SOL    HW110932   9.849   8.383   2.496
 2975SOL    HW210933   9.841   8.529   2.535
 2976SOL     OW10934   9.553   4.556   2.533
 2976SOL    HW110935   9.633   4.504   2.543
 2976SOL    HW210936   9.522   4.533   2.445
 2977SOL     OW10937   7.800   5.780   4.353
 2977SOL    HW110938   7.776   5.689   4.334
 2977SOL    HW210939   7.886   5.790   4.311
 2978SOL     OW10940   4.735   0.795   4.816
 2978SOL    HW110941   4.656   0.742   4.807
 2978SOL    HW210942   4.749   0.802   4.910
 2979SOL     OW10943   8.079   1.547   3.914
 2979SOL    HW110944   8.098   1.464   3.869
 2979SOL    HW210945   8.158   1.565   3.964
 2980SOL     OW10946   0.286   3.548   5.418
 2980SOL    HW110947   0.366   3.514   5.378
 2980SOL    HW210948   0.247   3.472   5.462
 2981SOL     OW10949   4.369   0.999   0.526
 2981SOL    HW110950   4.371   0.938   0.600
 2981SOL    HW210951   4.314   0.956   0.460
 2982SOL     OW10952   2.561   6.127   5.030
 2982SOL    HW110953   2.610   6.199   5.070
 2982SOL    HW210954   2.611   6.048   5.052
 2983SOL     OW10955   4.738   7.347   4.705
 2983SOL    HW110956   4.761   7.254   4.705
 2983SOL    HW210957   4.750   7.375   4.795
 2984SOL     OW10958   5.696   2.188   8.012
 2984SOL    HW110959   5.712   2.280   8.033
 2984SOL    HW210960   5.759   2.140   8.065
 2985SOL     OW10961   2.383   6.080   7.850
 2985SOL    HW110962   2.326   6.012   7.814
 2985SOL    HW210963   2.324   6.139   7.897
 2986SOL     OW10964  10.876   2.088   5.497
 2986SOL    HW110965  10.860   1.993   5.494
 2986SOL    HW210966  10.922   2.107   5.415
 2987SOL     OW10967   4.840   7.440   3.202
 2987SOL    HW110968   4.899   7.374   3.165
 2987SOL    HW210969   4.869   7.522   3.162
 2988SOL     OW10970   2.520   1.159   6.131
 2988SOL    HW110971   2.552   1.072   6.108
 2988SOL    HW210972   2.442   1.171   6.076
 2989SOL     OW10973   8.990   6.510   0.356
 2989SOL    HW110974   9.014   6.482   0.444
 2989SOL    HW210975   9.073   6.511   0.308
 2990SOL     OW10976   0.203   0.121   3.190
 2990SOL    HW110977   0.262   0.191   3.217
 2990SOL    HW210978   0.253   0.070   3.125
 2991SOL     OW10979   9.218   3.933   7.244
 2991SOL    HW110980   9.160   3.996   7.202
 2991SOL    HW210981   9.265   3.892   7.171
 2992SOL     OW10982   5.649   3.393   2.881
 2992SOL    HW110983   5.723   3.444   2.912
 2992SOL    HW210984   5.572   3.435   2.918
 2993SOL     OW10985  10.706   0.118   5.552
 2993SOL    HW110986  10.679   0.106   5.461
 2993SOL    HW210987  10.657   0.194   5.582
 2994SOL     OW10988   1.868   2.698   9.203
 2994SOL    HW110989   1.864   2.602   9.209
 2994SOL    HW210990   1.816   2.729   9.276
 2995SOL     OW10991   2.992   3.178   4.297
 2995SOL    HW110992   3.002   3.120   4.373
 2995SOL    HW210993   2.994   3.266   4.333
 2996SOL     OW10994  11.051   9.878   1.635
 2996SOL    HW110995  11.121   9.815   1.653
 2996SOL    HW210996  10.974   9.840   1.676
 2997SOL     OW10997   5.973   9.591   5.346
 2997SOL    HW110998   5.972   9.502   5.382
 2997SOL    HW210999   5.881   9.613   5.335
 2998SOL     OW11000   6.317   5.846   2.244
 2998SOL    HW111001   6.284   5.923   2.199
 2998SOL    HW211002   6.369   5.880   2.316
 2999SOL     OW11003  10.515   3.917   3.471
 2999SOL    HW111004  10.611   3.915   3.471
 2999SOL    HW211005  10.493   4.008   3.454
 3000SOL     OW11006   2.196   7.949   2.020
 3000SOL    HW111007   2.187   7.854   2.009
 3000SOL    HW211008   2.122   7.986   1.971
 3001SOL     OW11009   3.399   4.621   8.535
 3001SOL    HW111010   3.352   4.685   8.588
 3001SOL    HW211011   3.366   4.635   8.446
 3002SOL     OW11012   0.307   8.551   9.264
 3002SOL    HW111013   0.360   8.473   9.248
 3002SOL    HW211014   0.282   8.545   9.356
 3003SOL     OW11015   3.289   9.997   0.855
 3003SOL    HW111016   3.350  10.071   0.855
 3003SOL    HW211017   3.221  10.022   0.917
 3004SOL     OW11018   0.926   2.901   5.200
 3004SOL    HW111019   0.942   2.861   5.114
 3004SOL    HW211020   0.873   2.836   5.246
 3005SOL     OW11021  10.384   3.346  10.483
 3005SOL    HW111022  10.324   3.372  10.413
 3005SOL    HW211023  10.433   3.425  10.504
 3006SOL     OW11024   8.198   5.140   5.187
 3006SOL    HW111025   8.196   5.230   5.219
 3006SOL    HW211026   8.254   5.143   5.109
 3007SOL     OW11027   4.699   4.351   5.016
 3007SOL    HW111028   4.701   4.431   5.067
 3007SOL    HW211029   4.734   4.284   5.075
 3008SOL     OW11030  11.039   2.863   4.789
 3008SOL    HW111031  10.971   2.906   4.737
 3008SOL    HW211032  11.055   2.780   4.743
 3009SOL     OW11033  10.131   3.707   5.420
 3009SOL    HW111034  10.140   3.628   5.473
 3009SOL    HW211035  10.174   3.775   5.471
 3010SOL     OW11036   1.048   1.866   9.661
 3010SOL    HW111037   1.115   1.906   9.716
 3010SOL    HW211038   0.994   1.939   9.631
 3011SOL     OW11039   6.346   3.097   1.366
 3011SOL    HW111040   6.362   3.035   1.437
 3011SOL    HW211041   6.255   3.082   1.341
 3012SOL     OW11042   3.087   5.748   0.187
 3012SOL    HW111043   3.100   5.786   0.274
 3012SOL    HW211044   3.001   5.706   0.192
 3013SOL     OW11045   7.450   0.642   9.114
 3013SOL    HW111046   7.453   0.727   9.158
 3013SOL    HW211047   7.514   0.588   9.161
 3014SOL     OW11048   0.444   3.169   4.987
 3014SOL    HW111049   0.397   3.090   5.015
 3014SOL    HW211050   0.377   3.224   4.946
 3015SOL     OW11051   7.675   0.682   3.070
 3015SOL    HW111052   7.655   0.669   3.162
 3015SOL    HW211053   7.723   0.603   3.044
 3016SOL     OW11054   1.501   3.925   5.112
 3016SOL    HW111055   1.437   3.865   5.074
 3016SOL    HW211056   1.584   3.877   5.108
 3017SOL     OW11057   8.071   3.249   2.745
 3017SOL    HW111058   7.990   3.233   2.794
 3017SOL    HW211059   8.047   3.313   2.678
 3018SOL     OW11060   4.202   7.426   0.111
 3018SOL    HW111061   4.233   7.344   0.072
 3018SOL    HW211062   4.168   7.399   0.197
 3019SOL     OW11063   3.912   6.262  10.641
 3019SOL    HW111064   3.972   6.244  10.568
 3019SOL    HW211065   3.828   6.278  10.599
 3020SOL     OW11066   0.241   4.738   3.261
 3020SOL    HW111067   0.193   4.675   3.207
 3020SOL    HW211068   0.253   4.693   3.345
 3021SOL     OW11069   8.242   1.464   8.251
 3021SOL    HW111070   8.313   1.474   8.187
 3021SOL    HW211071   8.191   1.544   8.243
 3022SOL     OW11072   4.002   8.716   2.781
 3022SOL    HW111073   3.995   8.806   2.813
 3022SOL    HW211074   3.962   8.662   2.849
 3023SOL     OW11075   2.475   0.222  10.051
 3023SOL    HW111076   2.512   0.206  10.138
 3023SOL    HW211077   2.496   0.313  10.032
 3024SOL     OW11078   1.302   4.367   2.624
 3024SOL    HW111079   1.335   4.290   2.576
 3024SOL    HW211080   1.374   4.392   2.682
 3025SOL     OW11081   1.008   8.361  10.764
 3025SOL    HW111082   0.979   8.300  10.831
 3025SOL    HW211083   1.094   8.391  10.794
 3026SOL     OW11084   1.608   7.242   6.788
 3026SOL    HW111085   1.568   7.175   6.844
 3026SOL    HW211086   1.603   7.205   6.700
 3027SOL     OW11087   8.506  10.958   8.209
 3027SOL    HW111088   8.581  10.901   8.229
 3027SOL    HW211089   8.491  11.007   8.290
 3028SOL     OW11090   9.733   3.485   2.167
 3028SOL    HW111091   9.667   3.427   2.205
 3028SOL    HW211092   9.816   3.440   2.182
 3029SOL     OW11093   4.395   3.986   1.410
 3029SOL    HW111094   4.431   3.897   1.411
 3029SOL    HW211095   4.365   4.001   1.499
 3030SOL     OW11096  10.912   1.012  10.732
 3030SOL    HW111097  10.885   1.090  10.683
 3030SOL    HW211098  10.833   0.958  10.736
 3031SOL     OW11099   9.313   2.365   8.693
 3031SOL    HW111100   9.330   2.280   8.735
 3031SOL    HW211101   9.270   2.417   8.760
 3032SOL     OW11102   7.684   4.997   9.128
 3032SOL    HW111103   7.615   4.934   9.148
 3032SOL    HW211104   7.650   5.047   9.054
 3033SOL     OW11105   3.894   7.971   2.659
 3033SOL    HW111106   3.921   7.919   2.583
 3033SOL    HW211107   3.820   8.023   2.627
 3034SOL     OW11108   0.621   0.638   4.420
 3034SOL    HW111109   0.701   0.677   4.455
 3034SOL    HW211110   0.565   0.713   4.399
 3035SOL     OW11111   1.285   9.359  11.051
 3035SOL    HW111112   1.204   9.353  11.000
 3035SOL    HW211113   1.270   9.303  11.127
 3036SOL     OW11114   1.425   6.723  10.010
 3036SOL    HW111115   1.390   6.747  10.096
 3036SOL    HW211116   1.400   6.795   9.953
 3037SOL     OW11117   4.404   4.570   3.228
 3037SOL    HW111118   4.379   4.578   3.320
 3037SOL    HW211119   4.461   4.645   3.212
 3038SOL     OW11120   5.186   8.346   8.854
 3038SOL    HW111121   5.240   8.330   8.776
 3038SOL    HW211122   5.206   8.273   8.913
 3039SOL     OW11123   3.437   0.682   1.001
 3039SOL    HW111124   3.525   0.663   0.968
 3039SOL    HW211125   3.387   0.602   0.982
 3040SOL     OW11126   8.037   3.692  10.658
 3040SOL    HW111127   8.016   3.723  10.746
 3040SOL    HW211128   8.067   3.602  10.671
 3041SOL     OW11129   6.211   7.794   4.455
 3041SOL    HW111130   6.209   7.698   4.460
 3041SOL    HW211131   6.177   7.823   4.539
 3042SOL     OW11132   1.465   5.813   5.719
 3042SOL    HW111133   1.500   5.829   5.806
 3042SOL    HW211134   1.522   5.862   5.660
 3043SOL     OW11135  10.802   4.038   6.527
 3043SOL    HW111136  10.713   4.059   6.500
 3043SOL    HW211137  10.803   4.050   6.622
 3044SOL     OW11138   2.896   3.730   2.461
 3044SOL    HW111139   2.871   3.731   2.368
 3044SOL    HW211140   2.829   3.782   2.505
 3045SOL     OW11141   0.969   7.767   7.043
 3045SOL    HW111142   1.020   7.763   6.962
 3045SOL    HW211143   1.021   7.717   7.106
 3046SOL     OW11144   1.185   4.827   0.929
 3046SOL    HW111145   1.184   4.896   0.995
 3046SOL    HW211146   1.142   4.866   0.853
 3047SOL     OW11147   4.292   4.791   7.485
 3047SOL    HW111148   4.367   4.837   7.447
 3047SOL    HW211149   4.218   4.851   7.473
 3048SOL     OW11150   1.530   1.191   1.171
 3048SOL    HW111151   1.605   1.135   1.153
 3048SOL    HW211152   1.566   1.279   1.175
 3049SOL     OW11153  10.973   0.864   8.936
 3049SOL    HW111154  10.898   0.813   8.904
 3049SOL    HW211155  11.031   0.799   8.976
 3050SOL     OW11156   7.325   3.087   8.929
 3050SOL    HW111157   7.393   3.147   8.958
 3050SOL    HW211158   7.372   3.005   8.910
 3051SOL     OW11159   0.131   0.514   8.522
 3051SOL    HW111160   0.058   0.494   8.462
 3051SOL    HW211161   0.094   0.503   8.609
 3052SOL     OW11162   1.150  10.407   5.485
 3052SOL    HW111163   1.058  10.390   5.505
 3052SOL    HW211164   1.196  10.389   5.567
 3053SOL     OW11165   9.344   3.484   7.028
 3053SOL    HW111166   9.346   3.440   7.113
 3053SOL    HW211167   9.389   3.424   6.968
 3054SOL     OW11168   2.388   7.065   3.312
 3054SOL    HW111169   2.316   7.060   3.249
 3054SOL    HW211170   2.408   7.158   3.319
 3055SOL     OW11171   0.421   5.808   5.263
 3055SOL    HW111172   0.424   5.866   5.186
 3055SOL    HW211173   0.429   5.866   5.338
 3056SOL     OW11174   7.633   6.551   3.217
 3056SOL    HW111175   7.640   6.564   3.122
 3056SOL    HW211176   7.604   6.460   3.226
 3057SOL     OW11177   1.322   8.565   5.324
 3057SOL    HW111178   1.316   8.655   5.356
 3057SOL    HW211179   1.314   8.510   5.402
 3058SOL     OW11180   8.422  10.232   3.933
 3058SOL    HW111181   8.422  10.172   4.008
 3058SOL    HW211182   8.345  10.206   3.882
 3059SOL     OW11183   7.409   2.718   5.451
 3059SOL    HW111184   7.437   2.629   5.471
 3059SOL    HW211185   7.485   2.772   5.472
 3060SOL     OW11186   9.914   3.930   5.125
 3060SOL    HW111187   9.863   4.005   5.094
 3060SOL    HW211188   9.856   3.855   5.113
 3061SOL     OW11189   5.212   6.122   9.604
 3061SOL    HW111190   5.208   6.026   9.603
 3061SOL    HW211191   5.122   6.150   9.619
 3062SOL     OW11192   1.384   0.625   7.683
 3062SOL    HW111193   1.430   0.705   7.707
 3062SOL    HW211194   1.419   0.558   7.742
 3063SOL     OW11195   1.737   9.611   9.349
 3063SOL    HW111196   1.830   9.603   9.369
 3063SOL    HW211197   1.732   9.602   9.254
 3064SOL     OW11198   5.456   4.021   1.058
 3064SOL    HW111199   5.529   4.051   1.112
 3064SOL    HW211200   5.378   4.055   1.102
 3065SOL     OW11201   7.198   2.408   0.970
 3065SOL    HW111202   7.231   2.433   1.056
 3065SOL    HW211203   7.249   2.330   0.947
 3066SOL     OW11204   6.294   8.045   5.114
 3066SOL    HW111205   6.355   7.983   5.154
 3066SOL    HW211206   6.293   8.120   5.173
 3067SOL     OW11207   1.032   6.718  11.053
 3067SOL    HW111208   1.113   6.718  11.104
 3067SOL    HW211209   1.053   6.767  10.973
 3068SOL     OW11210   7.189   1.643   8.473
 3068SOL    HW111211   7.237   1.560   8.463
 3068SOL    HW211212   7.238   1.691   8.540
 3069SOL     OW11213   9.967   9.780   7.748
 3069SOL    HW111214   9.944   9.870   7.728
 3069SOL    HW211215  10.026   9.786   7.823
 3070SOL     OW11216   4.416   3.063   5.811
 3070SOL    HW111217   4.383   3.152   5.816
 3070SOL    HW211218   4.344   3.013   5.772
 3071SOL     OW11219  10.316   5.233   0.240
 3071SOL    HW111220  10.349   5.285   0.167
 3071SOL    HW211221  10.296   5.148   0.201
 3072SOL     OW11222   8.453   0.172   1.643
 3072SOL    HW111223   8.539   0.149   1.678
 3072SOL    HW211224   8.471   0.239   1.577
 3073SOL     OW11225  10.737   9.174   1.215
 3073SOL    HW111226  10.713   9.169   1.307
 3073SOL    HW211227  10.802   9.244   1.211
 3074SOL     OW11228   9.414   5.779  10.716
 3074SOL    HW111229   9.325   5.802  10.691
 3074SOL    HW211230   9.413   5.781  10.811
 3075SOL     OW11231   7.420   7.719   0.817
 3075SOL    HW111232   7.400   7.723   0.723
 3075SOL    HW211233   7.466   7.800   0.835
 3076SOL     OW11234  11.003   3.623   4.828
 3076SOL    HW111235  11.084   3.657   4.865
 3076SOL    HW211236  10.995   3.535   4.864
 3077SOL     OW11237   4.650   6.934   3.024
 3077SOL    HW111238   4.644   6.840   3.003
 3077SOL    HW211239   4.570   6.972   2.987
 3078SOL     OW11240   5.539   4.328   5.016
 3078SOL    HW111241   5.571   4.382   5.088
 3078SOL    HW211242   5.606   4.261   5.004
 3079SOL     OW11243   6.468  10.595   5.749
 3079SOL    HW111244   6.500  10.682   5.726
 3079SOL    HW211245   6.404  10.574   5.681
 3080SOL     OW11246   9.724   4.935   6.109
 3080SOL    HW111247   9.712   4.860   6.050
 3080SOL    HW211248   9.799   4.982   6.072
 3081SOL     OW11249   1.115   7.954   8.576
 3081SOL    HW111250   1.121   7.959   8.671
 3081SOL    HW211251   1.196   7.994   8.544
 3082SOL     OW11252   3.003   4.054   4.485
 3082SOL    HW111253   3.045   3.969   4.497
 3082SOL    HW211254   2.917   4.044   4.525
 3083SOL     OW11255   4.266   2.900   6.140
 3083SOL    HW111256   4.239   2.964   6.206
 3083SOL    HW211257   4.341   2.940   6.096
 3084SOL     OW11258   7.819   8.248   3.216
 3084SOL    HW111259   7.875   8.170   3.222
 3084SOL    HW211260   7.876   8.320   3.243
 3085SOL     OW11261   7.398   6.258   4.143
 3085SOL    HW111262   7.481   6.213   4.128
 3085SOL    HW211263   7.410   6.305   4.225
 3086SOL     OW11264   4.620   3.139   4.868
 3086SOL    HW111265   4.671   3.114   4.790
 3086SOL    HW211266   4.656   3.224   4.894
 3087SOL     OW11267   1.646   8.736   6.320
 3087SOL    HW111268   1.651   8.644   6.347
 3087SOL    HW211269   1.599   8.733   6.236
 3088SOL     OW11270   4.087   3.796   9.389
 3088SOL    HW111271   4.168   3.809   9.438
 3088SOL    HW211272   4.056   3.710   9.417
 3089SOL     OW11273   0.300   1.994   6.807
 3089SOL    HW111274   0.367   2.054   6.838
 3089SOL    HW211275   0.219   2.023   6.848
 3090SOL     OW11276   3.097   1.595   7.594
 3090SOL    HW111277   3.030   1.617   7.529
 3090SOL    HW211278   3.148   1.675   7.604
 3091SOL     OW11279   9.632   3.516   5.956
 3091SOL    HW111280   9.654   3.428   5.923
 3091SOL    HW211281   9.716   3.553   5.981
 3092SOL     OW11282  10.194   6.946   2.431
 3092SOL    HW111283  10.164   7.014   2.371
 3092SOL    HW211284  10.135   6.872   2.415
 3093SOL     OW11285   7.992  10.162   4.971
 3093SOL    HW111286   7.994  10.255   4.950
 3093SOL    HW211287   7.907  10.148   5.012
 3094SOL     OW11288   6.458   0.369   6.318
 3094SOL    HW111289   6.429   0.444   6.369
 3094SOL    HW211290   6.380   0.340   6.270
 3095SOL     OW11291   2.253   3.255   0.848
 3095SOL    HW111292   2.292   3.335   0.813
 3095SOL    HW211293   2.243   3.272   0.941
 3096SOL     OW11294   2.750   0.801   0.068
 3096SOL    HW111295   2.820   0.833   0.011
 3096SOL    HW211296   2.681   0.774   0.008
 3097SOL     OW11297   1.686   6.464   7.982
 3097SOL    HW111298   1.734   6.517   8.046
 3097SOL    HW211299   1.741   6.386   7.969
 3098SOL     OW11300   8.863   3.121   8.785
 3098SOL    HW111301   8.917   3.052   8.823
 3098SOL    HW211302   8.856   3.187   8.854
 3099SOL     OW11303  10.445   0.334   2.551
 3099SOL    HW111304  10.430   0.316   2.643
 3099SOL    HW211305  10.533   0.372   2.548
 3100SOL     OW11306   2.491   0.925   5.207
 3100SOL    HW111307   2.568   0.873   5.231
 3100SOL    HW211308   2.439   0.866   5.151
 3101SOL     OW11309   1.182   7.120  10.394
 3101SOL    HW111310   1.149   7.068  10.321
 3101SOL    HW211311   1.130   7.092  10.469
 3102SOL     OW11312   3.621   4.961   9.655
 3102SOL    HW111313   3.673   5.036   9.685
 3102SOL    HW211314   3.535   4.997   9.634
 3103SOL     OW11315  11.083   1.035   3.548
 3103SOL    HW111316  11.175   1.014   3.564
 3103SOL    HW211317  11.063   0.992   3.465
 3104SOL     OW11318   7.780  10.687   4.371
 3104SOL    HW111319   7.716  10.677   4.300
 3104SOL    HW211320   7.824  10.770   4.352
 3105SOL     OW11321   2.599  10.691   5.123
 3105SOL    HW111322   2.671  10.744   5.156
 3105SOL    HW211323   2.520  10.731   5.160
 3106SOL     OW11324   1.255   6.050   2.758
 3106SOL    HW111325   1.347   6.070   2.741
 3106SOL    HW211326   1.207   6.120   2.714
 3107SOL     OW11327   0.679   6.291   4.046
 3107SOL    HW111328   0.729   6.209   4.046
 3107SOL    HW211329   0.682   6.320   3.954
 3108SOL     OW11330   7.097   2.009   3.551
 3108SOL    HW111331   7.141   2.089   3.522
 3108SOL    HW211332   7.168   1.953   3.583
 3109SOL     OW11333   0.273   3.425   8.912
 3109SOL    HW111334   0.314   3.490   8.968
 3109SOL    HW211335   0.183   3.455   8.902
 3110SOL     OW11336   2.465   2.992  10.155
 3110SOL    HW111337   2.472   3.047  10.077
 3110SOL    HW211338   2.381   3.015  10.193
 3111SOL     OW11339   8.969  10.495   2.232
 3111SOL    HW111340   8.964  10.552   2.155
 3111SOL    HW211341   8.879  10.490   2.264
 3112SOL     OW11342   1.882   6.477   1.559
 3112SOL    HW111343   1.910   6.449   1.471
 3112SOL    HW211344   1.849   6.566   1.546
 3113SOL     OW11345   5.042   1.152   0.058
 3113SOL    HW111346   4.983   1.214   0.099
 3113SOL    HW211347   4.985   1.082   0.026
 3114SOL     OW11348   2.488   6.461   5.052
 3114SOL    HW111349   2.404   6.419   5.035
 3114SOL    HW211350   2.498   6.457   5.147
 3115SOL     OW11351   9.048   3.025   7.282
 3115SOL    HW111352   9.038   3.048   7.189
 3115SOL    HW211353   9.111   2.952   7.282
 3116SOL     OW11354   6.684   2.060   6.981
 3116SOL    HW111355   6.688   2.026   7.070
 3116SOL    HW211356   6.658   2.151   6.991
 3117SOL     OW11357   3.193   3.097   7.768
 3117SOL    HW111358   3.215   3.190   7.761
 3117SOL    HW211359   3.188   3.067   7.677
 3118SOL     OW11360   1.543   5.737   4.154
 3118SOL    HW111361   1.612   5.802   4.140
 3118SOL    HW211362   1.585   5.653   4.137
 3119SOL     OW11363   7.067   1.578   7.893
 3119SOL    HW111364   7.092   1.536   7.975
 3119SOL    HW211365   7.150   1.604   7.853
 3120SOL     OW11366   3.674   2.986   5.438
 3120SOL    HW111367   3.762   2.966   5.406
 3120SOL    HW211368   3.686   3.060   5.497
 3121SOL     OW11369   2.466   0.368   4.059
 3121SOL    HW111370   2.466   0.460   4.082
 3121SOL    HW211371   2.538   0.330   4.109
 3122SOL     OW11372   8.957   4.969   4.084
 3122SOL    HW111373   8.978   4.894   4.028
 3122SOL    HW211374   8.880   4.941   4.132
 3123SOL     OW11375   6.954   2.570  10.821
 3123SOL    HW111376   6.989   2.521  10.896
 3123SOL    HW211377   6.917   2.502  10.764
 3124SOL     OW11378   2.749   5.247   3.210
 3124SOL    HW111379   2.745   5.184   3.138
 3124SOL    HW211380   2.681   5.218   3.271
 3125SOL     OW11381   2.665   5.939   2.123
 3125SOL    HW111382   2.737   5.997   2.148
 3125SOL    HW211383   2.589   5.975   2.167
 3126SOL     OW11384   7.451   8.817   3.632
 3126SOL    HW111385   7.453   8.747   3.566
 3126SOL    HW211386   7.504   8.887   3.594
 3127SOL     OW11387   5.745   4.227   5.927
 3127SOL    HW111388   5.691   4.294   5.886
 3127SOL    HW211389   5.697   4.203   6.006
 3128SOL     OW11390   3.963   6.625   5.463
 3128SOL    HW111391   4.040   6.678   5.443
 3128SOL    HW211392   3.906   6.683   5.513
 3129SOL     OW11393   8.981   5.612   5.545
 3129SOL    HW111394   8.963   5.660   5.464
 3129SOL    HW211395   8.947   5.524   5.529
 3130SOL     OW11396   4.576   2.906   8.522
 3130SOL    HW111397   4.565   2.899   8.617
 3130SOL    HW211398   4.540   2.824   8.488
 3131SOL     OW11399   1.927   6.017   3.103
 3131SOL    HW111400   2.018   6.029   3.074
 3131SOL    HW211401   1.934   5.964   3.182
 3132SOL     OW11402   0.007   7.629  10.069
 3132SOL    HW111403  -0.036   7.555  10.112
 3132SOL    HW211404   0.092   7.636  10.112
 3133SOL     OW11405   2.590   6.806   8.625
 3133SOL    HW111406   2.658   6.745   8.655
 3133SOL    HW211407   2.530   6.751   8.575
 3134SOL     OW11408   4.617  11.050   4.841
 3134SOL    HW111409   4.700  11.007   4.823
 3134SOL    HW211410   4.559  10.979   4.868
 3135SOL     OW11411  11.048   2.975   6.524
 3135SOL    HW111412  11.141   2.990   6.504
 3135SOL    HW211413  11.001   3.034   6.465
 3136SOL     OW11414   1.025   6.279   4.188
 3136SOL    HW111415   0.942   6.234   4.203
 3136SOL    HW211416   1.090   6.225   4.234
 3137SOL     OW11417   2.540   9.599   6.453
 3137SOL    HW111418   2.484   9.596   6.375
 3137SOL    HW211419   2.624   9.632   6.420
 3138SOL     OW11420   3.407   0.935   1.439
 3138SOL    HW111421   3.326   0.945   1.489
 3138SOL    HW211422   3.378   0.906   1.352
 3139SOL     OW11423   9.297   6.726   2.550
 3139SOL    HW111424   9.249   6.809   2.554
 3139SOL    HW211425   9.377   6.746   2.500
 3140SOL     OW11426   8.202   6.506   2.614
 3140SOL    HW111427   8.137   6.561   2.570
 3140SOL    HW211428   8.287   6.544   2.590
 3141SOL     OW11429   6.260   8.582   3.352
 3141SOL    HW111430   6.215   8.580   3.436
 3141SOL    HW211431   6.227   8.661   3.308
 3142SOL     OW11432   7.282   5.658   6.756
 3142SOL    HW111433   7.314   5.728   6.699
 3142SOL    HW211434   7.189   5.652   6.737
 3143SOL     OW11435   2.263   3.628   3.067
 3143SOL    HW111436   2.188   3.665   3.020
 3143SOL    HW211437   2.275   3.685   3.142
 3144SOL     OW11438   7.959  10.428   4.870
 3144SOL    HW111439   7.989  10.379   4.793
 3144SOL    HW211440   7.914  10.504   4.834
 3145SOL     OW11441   0.259   0.430   8.033
 3145SOL    HW111442   0.253   0.388   8.119
 3145SOL    HW211443   0.240   0.360   7.970
 3146SOL     OW11444   4.278   4.524   5.825
 3146SOL    HW111445   4.303   4.467   5.752
 3146SOL    HW211446   4.241   4.602   5.783
 3147SOL     OW11447   2.615   3.610  10.181
 3147SOL    HW111448   2.551   3.635  10.247
 3147SOL    HW211449   2.586   3.524  10.151
 3148SOL     OW11450   0.992   5.943   8.637
 3148SOL    HW111451   1.070   5.897   8.605
 3148SOL    HW211452   0.923   5.877   8.636
 3149SOL     OW11453   0.824   8.080   3.026
 3149SOL    HW111454   0.733   8.081   2.996
 3149SOL    HW211455   0.819   8.056   3.118
 3150SOL     OW11456   9.629   6.208   8.338
 3150SOL    HW111457   9.659   6.120   8.312
 3150SOL    HW211458   9.555   6.191   8.397
 3151SOL     OW11459   0.397   6.458   3.974
 3151SOL    HW111460   0.326   6.432   4.033
 3151SOL    HW211461   0.463   6.497   4.031
 3152SOL     OW11462   8.573   4.608   3.492
 3152SOL    HW111463   8.629   4.562   3.555
 3152SOL    HW211464   8.633   4.666   3.445
 3153SOL     OW11465   4.188   0.188   4.291
 3153SOL    HW111466   4.238   0.130   4.349
 3153SOL    HW211467   4.187   0.272   4.335
 3154SOL     OW11468   8.907   9.488   8.924
 3154SOL    HW111469   8.924   9.419   8.988
 3154SOL    HW211470   8.812   9.500   8.925
 3155SOL     OW11471   3.936   0.367  10.047
 3155SOL    HW111472   4.013   0.310  10.056
 3155SOL    HW211473   3.889   0.357  10.130
 3156SOL     OW11474   1.170   2.965   5.910
 3156SOL    HW111475   1.090   2.916   5.930
 3156SOL    HW211476   1.225   2.902   5.863
 3157SOL     OW11477   6.716   8.912   9.967
 3157SOL    HW111478   6.753   8.839   9.916
 3157SOL    HW211479   6.792   8.955  10.004
 3158SOL     OW11480   5.864   2.058   7.455
 3158SOL    HW111481   5.944   2.110   7.460
 3158SOL    HW211482   5.806   2.096   7.520
 3159SOL     OW11483   8.928   3.132   2.965
 3159SOL    HW111484   8.881   3.082   2.898
 3159SOL    HW211485   8.932   3.221   2.930
 3160SOL     OW11486   1.245  10.036   4.631
 3160SOL    HW111487   1.218  10.110   4.577
 3160SOL    HW211488   1.232   9.959   4.574
 3161SOL     OW11489   0.633   3.772   5.176
 3161SOL    HW111490   0.721   3.778   5.139
 3161SOL    HW211491   0.577   3.753   5.100
 3162SOL     OW11492   3.754   0.860   2.259
 3162SOL    HW111493   3.787   0.929   2.202
 3162SOL    HW211494   3.812   0.861   2.335
 3163SOL     OW11495   5.421   9.208  10.372
 3163SOL    HW111496   5.382   9.156  10.301
 3163SOL    HW211497   5.491   9.257  10.329
 3164SOL     OW11498   5.427   6.191   2.279
 3164SOL    HW111499   5.474   6.273   2.290
 3164SOL    HW211500   5.377   6.202   2.198
 3165SOL     OW11501   1.694   3.305   7.767
 3165SOL    HW111502   1.641   3.251   7.708
 3165SOL    HW211503   1.631   3.345   7.827
 3166SOL     OW11504   1.974   1.911   6.121
 3166SOL    HW111505   1.900   1.894   6.062
 3166SOL    HW211506   2.032   1.836   6.108
 3167SOL     OW11507   0.558   5.125   4.405
 3167SOL    HW111508   0.555   5.191   4.474
 3167SOL    HW211509   0.599   5.049   4.446
 3168SOL     OW11510   3.500  10.462   6.507
 3168SOL    HW111511   3.510  10.424   6.594
 3168SOL    HW211512   3.458  10.547   6.521
 3169SOL     OW11513   0.969   3.396   7.445
 3169SOL    HW111514   1.043   3.408   7.504
 3169SOL    HW211515   1.009   3.392   7.358
 3170SOL     OW11516  10.696   5.342   4.606
 3170SOL    HW111517  10.752   5.357   4.682
 3170SOL    HW211518  10.632   5.277   4.635
 3171SOL     OW11519   3.116   7.620   8.543
 3171SOL    HW111520   3.190   7.593   8.488
 3171SOL    HW211521   3.066   7.539   8.558
 3172SOL     OW11522  10.460   4.271   0.027
 3172SOL    HW111523  10.369   4.256   0.052
 3172SOL    HW211524  10.457   4.283  -0.068
 3173SOL     OW11525   1.754   5.698   3.382
 3173SOL    HW111526   1.720   5.664   3.299
 3173SOL    HW211527   1.719   5.787   3.388
 3174SOL     OW11528   0.949   7.347   5.044
 3174SOL    HW111529   1.008   7.337   4.968
 3174SOL    HW211530   0.951   7.440   5.063
 3175SOL     OW11531   4.481   6.608   0.681
 3175SOL    HW111532   4.541   6.552   0.632
 3175SOL    HW211533   4.527   6.691   0.689
 3176SOL     OW11534   1.306   9.466   1.808
 3176SOL    HW111535   1.225   9.473   1.757
 3176SOL    HW211536   1.324   9.372   1.811
 3177SOL     OW11537  10.513   1.548   8.072
 3177SOL    HW111538  10.464   1.590   8.001
 3177SOL    HW211539  10.600   1.587   8.067
 3178SOL     OW11540   4.302   6.134   3.729
 3178SOL    HW111541   4.388   6.157   3.765
 3178SOL    HW211542   4.292   6.190   3.652
 3179SOL     OW11543  10.924   3.114   4.203
 3179SOL    HW111544  11.006   3.155   4.229
 3179SOL    HW211545  10.868   3.187   4.177
 3180SOL     OW11546  10.748   7.518   6.752
 3180SOL    HW111547  10.744   7.515   6.656
 3180SOL    HW211548  10.766   7.609   6.773
 3181SOL     OW11549  10.621   3.533   7.242
 3181SOL    HW111550  10.637   3.539   7.336
 3181SOL    HW211551  10.571   3.612   7.221
 3182SOL     OW11552   8.445   4.744   5.147
 3182SOL    HW111553   8.514   4.712   5.205
 3182SOL    HW211554   8.484   4.742   5.059
 3183SOL     OW11555   4.798   4.767   8.575
 3183SOL    HW111556   4.865   4.826   8.610
 3183SOL    HW211557   4.827   4.748   8.486
 3184SOL     OW11558   1.064   0.156   7.800
 3184SOL    HW111559   1.150   0.192   7.780
 3184SOL    HW211560   1.069   0.130   7.892
 3185SOL     OW11561   0.440   8.190   8.315
 3185SOL    HW111562   0.434   8.252   8.242
 3185SOL    HW211563   0.498   8.121   8.282
 3186SOL     OW11564   2.461   9.457   5.468
 3186SOL    HW111565   2.522   9.495   5.405
 3186SOL    HW211566   2.500   9.372   5.491
 3187SOL     OW11567   2.104   6.145   7.986
 3187SOL    HW111568   2.111   6.162   8.080
 3187SOL    HW211569   2.121   6.051   7.977
 3188SOL     OW11570   9.369   2.851   3.961
 3188SOL    HW111571   9.434   2.920   3.949
 3188SOL    HW211572   9.388   2.788   3.891
 3189SOL     OW11573   3.145   3.220   5.830
 3189SOL    HW111574   3.132   3.136   5.785
 3189SOL    HW211575   3.074   3.224   5.894
 3190SOL     OW11576   4.400   1.040   7.217
 3190SOL    HW111577   4.472   1.075   7.165
 3190SOL    HW211578   4.323   1.086   7.185
 3191SOL     OW11579   3.932  10.688   3.463
 3191SOL    HW111580   3.838  10.676   3.471
 3191SOL    HW211581   3.958  10.733   3.543
 3192SOL     OW11582   9.270   3.731   3.476
 3192SOL    HW111583   9.257   3.816   3.517
 3192SOL    HW211584   9.237   3.668   3.539
 3193SOL     OW11585   8.394   8.927   6.782
 3193SOL    HW111586   8.311   8.882   6.764
 3193SOL    HW211587   8.450   8.859   6.819
 3194SOL     OW11588  10.202   4.856   4.720
 3194SOL    HW111589  10.233   4.781   4.771
 3194SOL    HW211590  10.278   4.881   4.667
 3195SOL     OW11591   0.359   3.620   2.883
 3195SOL    HW111592   0.454   3.624   2.869
 3195SOL    HW211593   0.348   3.590   2.973
 3196SOL     OW11594   3.287  11.056   0.781
 3196SOL    HW111595   3.275  11.102   0.864
 3196SOL    HW211596   3.217  10.991   0.779
 3197SOL     OW11597   3.379   7.520   8.760
 3197SOL    HW111598   3.307   7.457   8.759
 3197SOL    HW211599   3.429   7.499   8.681
 3198SOL     OW11600   4.998   5.180   3.834
 3198SOL    HW111601   5.076   5.132   3.863
 3198SOL    HW211602   4.943   5.113   3.792
 3199SOL     OW11603   9.037   2.763   6.492
 3199SOL    HW111604   9.059   2.844   6.447
 3199SOL    HW211605   8.947   2.776   6.523
 3200SOL     OW11606   2.272   9.680   2.687
 3200SOL    HW111607   2.335   9.729   2.739
 3200SOL    HW211608   2.287   9.588   2.711
 3201SOL     OW11609   9.181   6.432   7.112
 3201SOL    HW111610   9.189   6.363   7.045
 3201SOL    HW211611   9.271   6.456   7.132
 3202SOL     OW11612   4.415   2.729   5.945
 3202SOL    HW111613   4.343   2.666   5.945
 3202SOL    HW211614   4.378   2.809   5.908
 3203SOL     OW11615  10.946   0.162   1.842
 3203SOL    HW111616  10.909   0.090   1.790
 3203SOL    HW211617  10.972   0.227   1.777
 3204SOL     OW11618   2.982   3.819   3.836
 3204SOL    HW111619   2.898   3.774   3.829
 3204SOL    HW211620   3.029   3.771   3.904
 3205SOL     OW11621   9.106   1.517   6.607
 3205SOL    HW111622   9.067   1.433   6.582
 3205SOL    HW211623   9.156   1.498   6.686
 3206SOL     OW11624   4.193   5.897   7.009
 3206SOL    HW111625   4.273   5.866   7.051
 3206SOL    HW211626   4.220   5.976   6.962
 3207SOL     OW11627   1.897   8.843   6.018
 3207SOL    HW111628   1.892   8.937   6.033
 3207SOL    HW211629   1.840   8.828   5.942
 3208SOL     OW11630   3.816   7.834   4.883
 3208SOL    HW111631   3.770   7.783   4.950
 3208SOL    HW211632   3.811   7.779   4.804
 3209SOL     OW11633   2.891   0.655   6.208
 3209SOL    HW111634   2.975   0.609   6.206
 3209SOL    HW211635   2.901   0.725   6.144
 3210SOL     OW11636   1.351   0.352   3.631
 3210SOL    HW111637   1.429   0.304   3.603
 3210SOL    HW211638   1.355   0.434   3.583
 3211SOL     OW11639   3.045   0.474   9.711
 3211SOL    HW111640   3.128   0.464   9.664
 3211SOL    HW211641   3.050   0.560   9.752
 3212SOL     OW11642  10.047   7.440   0.795
 3212SOL    HW111643  10.133   7.410   0.826
 3212SOL    HW211644  10.053   7.535   0.796
 3213SOL     OW11645   2.588   7.582   7.833
 3213SOL    HW111646   2.544   7.600   7.750
 3213SOL    HW211647   2.530   7.520   7.878
 3214SOL     OW11648   5.622   4.309   9.664
 3214SOL    HW111649   5.682   4.277   9.731
 3214SOL    HW211650   5.555   4.241   9.658
 3215SOL     OW11651   4.810   9.951   4.421
 3215SOL    HW111652   4.814   9.879   4.357
 3215SOL    HW211653   4.899   9.956   4.456
 3216SOL     OW11654   0.853   4.250   5.164
 3216SOL    HW111655   0.873   4.310   5.092
 3216SOL    HW211656   0.758   4.252   5.171
 3217SOL     OW11657   6.838   4.602  10.481
 3217SOL    HW111658   6.929   4.579  10.463
 3217SOL    HW211659   6.837   4.697  10.481
 3218SOL     OW11660  10.712  11.074   6.349
 3218SOL    HW111661  10.731  11.043   6.437
 3218SOL    HW211662  10.734  11.167   6.351
 3219SOL     OW11663   2.695   1.821   3.836
 3219SOL    HW111664   2.746   1.853   3.761
 3219SOL    HW211665   2.728   1.870   3.911
 3220SOL     OW11666   0.134   3.457   5.854
 3220SOL    HW111667   0.181   3.375   5.841
 3220SOL    HW211668   0.042   3.430   5.864
 3221SOL     OW11669   6.427   2.858   4.901
 3221SOL    HW111670   6.451   2.770   4.871
 3221SOL    HW211671   6.342   2.846   4.943
 3222SOL     OW11672   4.679  10.757   5.362
 3222SOL    HW111673   4.656  10.668   5.334
 3222SOL    HW211674   4.706  10.801   5.281
 3223SOL     OW11675   1.075   3.755   4.882
 3223SOL    HW111676   1.097   3.843   4.853
 3223SOL    HW211677   1.071   3.704   4.801
 3224SOL     OW11678   3.673   1.611   0.524
 3224SOL    HW111679   3.590   1.646   0.556
 3224SOL    HW211680   3.680   1.643   0.434
 3225SOL     OW11681  10.571   5.782   9.145
 3225SOL    HW111682  10.625   5.706   9.123
 3225SOL    HW211683  10.563   5.830   9.062
 3226SOL     OW11684   6.576   3.627   3.908
 3226SOL    HW111685   6.584   3.534   3.931
 3226SOL    HW211686   6.500   3.631   3.850
 3227SOL     OW11687  11.026   4.550   9.297
 3227SOL    HW111688  10.972   4.595   9.232
 3227SOL    HW211689  11.113   4.588   9.286
 3228SOL     OW11690   8.421   7.816   8.480
 3228SOL    HW111691   8.438   7.786   8.390
 3228SOL    HW211692   8.353   7.757   8.513
 3229SOL     OW11693   0.281   9.198   0.137
 3229SOL    HW111694   0.301   9.255   0.063
 3229SOL    HW211695   0.350   9.215   0.201
 3230SOL     OW11696   5.742   2.183   6.259
 3230SOL    HW111697   5.755   2.248   6.328
 3230SOL    HW211698   5.830   2.150   6.240
 3231SOL     OW11699   1.376   3.890   0.724
 3231SOL    HW111700   1.337   3.893   0.637
 3231SOL    HW211701   1.303   3.871   0.782
 3232SOL     OW11702   8.973   5.853   3.557
 3232SOL    HW111703   8.977   5.761   3.583
 3232SOL    HW211704   8.998   5.901   3.636
 3233SOL     OW11705   8.261   5.785   1.534
 3233SOL    HW111706   8.217   5.727   1.596
 3233SOL    HW211707   8.203   5.860   1.526
 3234SOL     OW11708   1.743   4.177   1.669
 3234SOL    HW111709   1.662   4.190   1.717
 3234SOL    HW211710   1.769   4.087   1.690
 3235SOL     OW11711  11.049   4.618   6.864
 3235SOL    HW111712  11.097   4.699   6.878
 3235SOL    HW211713  10.957   4.644   6.864
 3236SOL     OW11714   8.918   4.791   2.800
 3236SOL    HW111715   8.823   4.783   2.791
 3236SOL    HW211716   8.946   4.706   2.835
 3237SOL     OW11717   0.245   4.264   6.210
 3237SOL    HW111718   0.279   4.330   6.150
 3237SOL    HW211719   0.245   4.307   6.295
 3238SOL     OW11720   0.892   6.420   4.794
 3238SOL    HW111721   0.884   6.504   4.839
 3238SOL    HW211722   0.915   6.358   4.863
 3239SOL     OW11723   6.931   5.656   8.785
 3239SOL    HW111724   6.967   5.605   8.858
 3239SOL    HW211725   6.938   5.747   8.813
 3240SOL     OW11726   3.903  10.449   5.025
 3240SOL    HW111727   3.870  10.362   5.049
 3240SOL    HW211728   3.927  10.489   5.108
 3241SOL     OW11729   8.954   2.185   7.049
 3241SOL    HW111730   8.928   2.143   7.131
 3241SOL    HW211731   8.941   2.278   7.064
 3242SOL     OW11732  10.365   9.895   2.787
 3242SOL    HW111733  10.325   9.818   2.745
 3242SOL    HW211734  10.306   9.917   2.859
 3243SOL     OW11735   6.808   6.693   7.814
 3243SOL    HW111736   6.714   6.692   7.830
 3243SOL    HW211737   6.817   6.675   7.720
 3244SOL     OW11738   2.815   1.837   6.296
 3244SOL    HW111739   2.746   1.774   6.272
 3244SOL    HW211740   2.888   1.814   6.238
 3245SOL     OW11741   2.643   1.653   4.913
 3245SOL    HW111742   2.706   1.725   4.915
 3245SOL    HW211743   2.646   1.615   5.001
 3246SOL     OW11744   8.643   1.075   7.119
 3246SOL    HW111745   8.558   1.096   7.081
 3246SOL    HW211746   8.676   1.158   7.153
 3247SOL     OW11747   9.290  10.210   7.658
 3247SOL    HW111748   9.221  10.153   7.693
 3247SOL    HW211749   9.245  10.291   7.636
 3248SOL     OW11750   5.320   6.267   8.997
 3248SOL    HW111751   5.346   6.352   9.030
 3248SOL    HW211752   5.265   6.230   9.066
 3249SOL     OW11753   3.468   3.352   6.086
 3249SOL    HW111754   3.466   3.262   6.118
 3249SOL    HW211755   3.385   3.389   6.114
 3250SOL     OW11756   5.404   6.537   0.895
 3250SOL    HW111757   5.318   6.577   0.902
 3250SOL    HW211758   5.408   6.475   0.968
 3251SOL     OW11759   8.451   7.956   3.933
 3251SOL    HW111760   8.438   8.036   3.983
 3251SOL    HW211761   8.546   7.952   3.918
 3252SOL     OW11762   5.743   5.173  10.555
 3252SOL    HW111763   5.649   5.165  10.539
 3252SOL    HW211764   5.754   5.260  10.592
 3253SOL     OW11765   4.718   3.767   8.122
 3253SOL    HW111766   4.753   3.688   8.163
 3253SOL    HW211767   4.763   3.772   8.037
 3254SOL     OW11768   2.445   8.348   9.664
 3254SOL    HW111769   2.462   8.335   9.757
 3254SOL    HW211770   2.354   8.320   9.652
 3255SOL     OW11771   7.178   7.168   5.662
 3255SOL    HW111772   7.200   7.113   5.586
 3255SOL    HW211773   7.199   7.114   5.738
 3256SOL     OW11774  11.032   3.835   8.222
 3256SOL    HW111775  10.942   3.846   8.192
 3256SOL    HW211776  11.042   3.899   8.292
 3257SOL     OW11777   9.389  10.761   7.656
 3257SOL    HW111778   9.422  10.823   7.591
 3257SOL    HW211779   9.466  10.736   7.706
 3258SOL     OW11780   2.642   2.475   5.439
 3258SOL    HW111781   2.571   2.465   5.502
 3258SOL    HW211782   2.599   2.499   5.357
 3259SOL     OW11783   4.577   2.397   9.342
 3259SOL    HW111784   4.617   2.378   9.257
 3259SOL    HW211785   4.646   2.380   9.406
 3260SOL     OW11786   1.068   5.134   8.497
 3260SOL    HW111787   1.120   5.073   8.549
 3260SOL    HW211788   0.979   5.098   8.500
 3261SOL     OW11789   7.174   4.030   2.119
 3261SOL    HW111790   7.139   4.089   2.052
 3261SOL    HW211791   7.263   4.062   2.135
 3262SOL     OW11792   2.681   7.727   5.378
 3262SOL    HW111793   2.720   7.711   5.292
 3262SOL    HW211794   2.748   7.777   5.425
 3263SOL     OW11795   0.670  10.953   5.184
 3263SOL    HW111796   0.665  10.872   5.235
 3263SOL    HW211797   0.589  11.000   5.205
 3264SOL     OW11798   5.863   0.625   5.837
 3264SOL    HW111799   5.952   0.590   5.826
 3264SOL    HW211800   5.860   0.656   5.927
 3265SOL     OW11801   2.627  10.145   1.604
 3265SOL    HW111802   2.698  10.171   1.663
 3265SOL    HW211803   2.565  10.098   1.660
 3266SOL     OW11804   5.344   9.319   5.375
 3266SOL    HW111805   5.281   9.247   5.384
 3266SOL    HW211806   5.385   9.303   5.290
 3267SOL     OW11807   3.379   8.781   7.583
 3267SOL    HW111808   3.411   8.842   7.649
 3267SOL    HW211809   3.447   8.781   7.515
 3268SOL     OW11810   1.991   4.650   5.685
 3268SOL    HW111811   1.991   4.744   5.666
 3268SOL    HW211812   1.904   4.632   5.722
 3269SOL     OW11813   5.546  10.650   1.399
 3269SOL    HW111814   5.637  10.628   1.377
 3269SOL    HW211815   5.549  10.742   1.426
 3270SOL     OW11816   5.461   5.771  10.730
 3270SOL    HW111817   5.389   5.710  10.746
 3270SOL    HW211818   5.483   5.806  10.816
 3271SOL     OW11819   4.828   3.926   5.094
 3271SOL    HW111820   4.767   3.880   5.152
 3271SOL    HW211821   4.773   3.986   5.044
 3272SOL     OW11822   7.769   4.546   3.480
 3272SOL    HW111823   7.687   4.571   3.522
 3272SOL    HW211824   7.759   4.452   3.462
 3273SOL     OW11825   8.769   2.477   9.441
 3273SOL    HW111826   8.857   2.451   9.414
 3273SOL    HW211827   8.781   2.515   9.528
 3274SOL     OW11828   4.199   7.314   5.439
 3274SOL    HW111829   4.244   7.397   5.452
 3274SOL    HW211830   4.110   7.338   5.415
 3275SOL     OW11831   1.053   8.280   4.921
 3275SOL    HW111832   1.063   8.326   5.004
 3275SOL    HW211833   0.991   8.333   4.871
 3276SOL     OW11834   6.394   9.663   6.420
 3276SOL    HW111835   6.358   9.678   6.507
 3276SOL    HW211836   6.488   9.675   6.431
 3277SOL     OW11837   2.437   9.143   5.386
 3277SOL    HW111838   2.529   9.164   5.370
 3277SOL    HW211839   2.440   9.071   5.449
 3278SOL     OW11840   3.724   6.358   6.162
 3278SOL    HW111841   3.818   6.352   6.177
 3278SOL    HW211842   3.686   6.291   6.219
 3279SOL     OW11843   1.342  10.470   4.946
 3279SOL    HW111844   1.351  10.436   4.856
 3279SOL    HW211845   1.248  10.474   4.961
 3280SOL     OW11846   3.393   4.102  10.969
 3280SOL    HW111847   3.331   4.036  10.938
 3280SOL    HW211848   3.470   4.090  10.914
 3281SOL     OW11849   6.265   1.260   7.268
 3281SOL    HW111850   6.189   1.221   7.225
 3281SOL    HW211851   6.300   1.189   7.322
 3282SOL     OW11852   4.622   2.686   1.352
 3282SOL    HW111853   4.555   2.718   1.413
 3282SOL    HW211854   4.577   2.682   1.267
 3283SOL     OW11855   0.009   8.594   5.582
 3283SOL    HW111856  -0.022   8.648   5.654
 3283SOL    HW211857   0.000   8.650   5.505
 3284SOL     OW11858   4.731   4.908   0.113
 3284SOL    HW111859   4.662   4.843   0.128
 3284SOL    HW211860   4.806   4.874   0.162
 3285SOL     OW11861  11.043   7.210   4.044
 3285SOL    HW111862  11.135   7.196   4.020
 3285SOL    HW211863  11.018   7.130   4.090
 3286SOL     OW11864   9.970   2.717  10.879
 3286SOL    HW111865   9.892   2.732  10.932
 3286SOL    HW211866   9.971   2.622  10.865
 3287SOL     OW11867   1.086   6.168   6.800
 3287SOL    HW111868   1.079   6.115   6.879
 3287SOL    HW211869   1.180   6.179   6.787
 3288SOL     OW11870   0.754   7.090   3.230
 3288SOL    HW111871   0.713   7.095   3.316
 3288SOL    HW211872   0.841   7.052   3.246
 3289SOL     OW11873   3.962   5.304   8.799
 3289SOL    HW111874   3.870   5.304   8.824
 3289SOL    HW211875   3.963   5.341   8.710
 3290SOL     OW11876   2.492   2.736   2.611
 3290SOL    HW111877   2.549   2.737   2.688
 3290SOL    HW211878   2.543   2.689   2.544
 3291SOL     OW11879  10.020   5.504   8.313
 3291SOL    HW111880  10.097   5.507   8.256
 3291SOL    HW211881  10.034   5.427   8.368
 3292SOL     OW11882   5.592   8.837  10.239
 3292SOL    HW111883   5.625   8.922  10.267
 3292SOL    HW211884   5.653   8.809  10.170
 3293SOL     OW11885  10.266  10.941   3.921
 3293SOL    HW111886  10.352  10.974   3.893
 3293SOL    HW211887  10.253  10.862   3.868
 3294SOL     OW11888   5.097   1.364  10.145
 3294SOL    HW111889   5.154   1.435  10.115
 3294SOL    HW211890   5.009   1.392  10.121
 3295SOL     OW11891   4.363   8.865   2.449
 3295SOL    HW111892   4.304   8.887   2.377
 3295SOL    HW211893   4.306   8.859   2.526
 3296SOL     OW11894   1.218  10.672   5.964
 3296SOL    HW111895   1.212  10.637   5.875
 3296SOL    HW211896   1.277  10.747   5.956
 3297SOL     OW11897   0.703   4.006   5.319
 3297SOL    HW111898   0.619   4.051   5.330
 3297SOL    HW211899   0.688   3.945   5.246
 3298SOL     OW11900   3.662   3.520   0.470
 3298SOL    HW111901   3.690   3.501   0.380
 3298SOL    HW211902   3.740   3.556   0.512
 3299SOL     OW11903   0.130   2.231   7.689
 3299SOL    HW111904   0.150   2.292   7.618
 3299SOL    HW211905   0.199   2.165   7.684
 3300SOL     OW11906   3.160   5.660   7.865
 3300SOL    HW111907   3.172   5.569   7.893
 3300SOL    HW211908   3.077   5.660   7.818
 3301SOL     OW11909   5.107   6.916   2.629
 3301SOL    HW111910   5.120   6.992   2.573
 3301SOL    HW211911   5.050   6.858   2.578
 3302SOL     OW11912   2.993  10.210   4.080
 3302SOL    HW111913   2.979  10.163   3.998
 3302SOL    HW211914   2.906  10.236   4.108
 3303SOL     OW11915   4.533   6.338   8.871
 3303SOL    HW111916   4.574   6.407   8.819
 3303SOL    HW211917   4.554   6.257   8.824
 3304SOL     OW11918   1.795   0.214   6.595
 3304SOL    HW111919   1.704   0.188   6.609
 3304SOL    HW211920   1.845   0.133   6.604
 3305SOL     OW11921  10.477   3.379   7.757
 3305SOL    HW111922  10.433   3.425   7.828
 3305SOL    HW211923  10.564   3.419   7.752
 3306SOL     OW11924   1.717  10.935   6.693
 3306SOL    HW111925   1.727  10.932   6.788
 3306SOL    HW211926   1.804  10.958   6.661
 3307SOL     OW11927   1.684   3.819   3.638
 3307SOL    HW111928   1.701   3.726   3.656
 3307SOL    HW211929   1.626   3.847   3.709
 3308SOL     OW11930   3.440   6.499   8.903
 3308SOL    HW111931   3.360   6.506   8.955
 3308SOL    HW211932   3.509   6.530   8.961
 3309SOL     OW11933   4.247   2.804   4.471
 3309SOL    HW111934   4.227   2.896   4.457
 3309SOL    HW211935   4.198   2.780   4.549
 3310SOL     OW11936   8.042   7.018   7.253
 3310SOL    HW111937   7.956   6.986   7.226
 3310SOL    HW211938   8.101   6.945   7.232
 3311SOL     OW11939   1.453   7.628   9.717
 3311SOL    HW111940   1.407   7.670   9.644
 3311SOL    HW211941   1.525   7.687   9.738
 3312SOL     OW11942  10.203   4.149   0.203
 3312SOL    HW111943  10.164   4.171   0.118
 3312SOL    HW211944  10.253   4.069   0.186
 3313SOL     OW11945   2.745   2.630   8.828
 3313SOL    HW111946   2.819   2.657   8.774
 3313SOL    HW211947   2.671   2.627   8.767
 3314SOL     OW11948   1.541   0.897   4.317
 3314SOL    HW111949   1.528   0.830   4.384
 3314SOL    HW211950   1.608   0.860   4.259
 3315SOL     OW11951   0.096   4.523   5.421
 3315SOL    HW111952   0.064   4.440   5.457
 3315SOL    HW211953   0.163   4.497   5.358
 3316SOL     OW11954   3.287   4.849   6.854
 3316SOL    HW111955   3.255   4.809   6.773
 3316SOL    HW211956   3.210   4.856   6.910
 3317SOL     OW11957  10.783   4.210   7.439
 3317SOL    HW111958  10.722   4.174   7.503
 3317SOL    HW211959  10.740   4.289   7.407
 3318SOL     OW11960   5.490   3.670   4.075
 3318SOL    HW111961   5.499   3.638   3.985
 3318SOL    HW211962   5.457   3.594   4.123
 3319SOL     OW11963   9.876   9.294   6.454
 3319SOL    HW111964   9.872   9.286   6.549
 3319SOL    HW211965   9.967   9.274   6.432
 3320SOL     OW11966   2.306   4.227   6.411
 3320SOL    HW111967   2.257   4.308   6.422
 3320SOL    HW211968   2.390   4.243   6.454
 3321SOL     OW11969   0.455   1.786  10.826
 3321SOL    HW111970   0.529   1.784  10.887
 3321SOL    HW211971   0.458   1.873  10.787
 3322SOL     OW11972  10.316   5.478   2.384
 3322SOL    HW111973  10.265   5.397   2.380
 3322SOL    HW211974  10.253   5.546   2.363
 3323SOL     OW11975   1.887   6.220   9.340
 3323SOL    HW111976   1.924   6.308   9.336
 3323SOL    HW211977   1.911   6.180   9.256
 3324SOL     OW11978   9.965   3.016   7.222
 3324SOL    HW111979  10.059   3.033   7.220
 3324SOL    HW211980   9.943   3.011   7.315
 3325SOL     OW11981   7.695   0.252   4.530
 3325SOL    HW111982   7.765   0.201   4.570
 3325SOL    HW211983   7.618   0.231   4.582
 3326SOL     OW11984   5.374   4.766   0.644
 3326SOL    HW111985   5.357   4.849   0.688
 3326SOL    HW211986   5.404   4.791   0.556
 3327SOL     OW11987   6.336   2.476   1.083
 3327SOL    HW111988   6.395   2.546   1.109
 3327SOL    HW211989   6.252   2.520   1.068
 3328SOL     OW11990   2.116   4.318   8.096
 3328SOL    HW111991   2.131   4.335   8.189
 3328SOL    HW211992   2.070   4.395   8.064
 3329SOL     OW11993   3.583   4.464   2.378
 3329SOL    HW111994   3.636   4.413   2.316
 3329SOL    HW211995   3.641   4.535   2.406
 3330SOL     OW11996   7.111   0.880   2.530
 3330SOL    HW111997   7.189   0.849   2.483
 3330SOL    HW211998   7.114   0.975   2.521
 3331SOL     OW11999   8.997   3.458   6.563
 3331SOL    HW112000   8.933   3.403   6.608
 3331SOL    HW212001   8.955   3.481   6.480
 3332SOL     OW12002   0.112   3.938   6.675
 3332SOL    HW112003   0.119   3.844   6.692
 3332SOL    HW212004   0.048   3.969   6.739
 3333SOL     OW12005  10.909   1.039   1.687
 3333SOL    HW112006  10.867   1.017   1.603
 3333SOL    HW212007  10.987   1.089   1.662
 3334SOL     OW12008   9.710   9.540   7.841
 3334SOL    HW112009   9.801   9.513   7.828
 3334SOL    HW212010   9.687   9.505   7.927
 3335SOL     OW12011   9.125  10.136   5.075
 3335SOL    HW112012   9.215  10.154   5.102
 3335SOL    HW212013   9.124  10.042   5.058
 3336SOL     OW12014  10.447   4.976  10.226
 3336SOL    HW112015  10.363   5.021  10.217
 3336SOL    HW212016  10.498   5.005  10.150
 3337SOL     OW12017   9.714   9.751   1.650
 3337SOL    HW112018   9.717   9.656   1.664
 3337SOL    HW212019   9.801   9.772   1.615
 3338SOL     OW12020   9.540   0.464   8.129
 3338SOL    HW112021   9.550   0.369   8.142
 3338SOL    HW212022   9.513   0.473   8.037
 3339SOL     OW12023   5.995   2.827   1.458
 3339SOL    HW112024   5.941   2.871   1.523
 3339SOL    HW212025   6.032   2.898   1.405
 3340SOL     OW12026   0.433   3.031   7.501
 3340SOL    HW112027   0.406   3.122   7.492
 3340SOL    HW212028   0.362   2.989   7.550
 3341SOL     OW12029   9.975   3.338   5.100
 3341SOL    HW112030  10.028   3.315   5.176
 3341SOL    HW212031   9.921   3.411   5.129
 3342SOL     OW12032   3.129   6.507   4.863
 3342SOL    HW112033   3.139   6.565   4.938
 3342SOL    HW212034   3.079   6.432   4.896
 3343SOL     OW12035   5.760   5.801   4.854
 3343SOL    HW112036   5.723   5.740   4.918
 3343SOL    HW212037   5.852   5.774   4.845
 3344SOL     OW12038  10.821   2.895   3.390
 3344SOL    HW112039  10.833   2.810   3.432
 3344SOL    HW212040  10.738   2.927   3.424
 3345SOL     OW12041   0.600   1.620   5.839
 3345SOL    HW112042   0.589   1.677   5.763
 3345SOL    HW212043   0.562   1.536   5.811
 3346SOL     OW12044   2.671   6.935   6.397
 3346SOL    HW112045   2.647   6.848   6.364
 3346SOL    HW212046   2.705   6.918   6.485
 3347SOL     OW12047   2.009   3.676   5.912
 3347SOL    HW112048   1.942   3.677   5.980
 3347SOL    HW212049   1.999   3.760   5.867
 3348SOL     OW12050   0.943   6.292   2.938
 3348SOL    HW112051   0.871   6.230   2.926
 3348SOL    HW212052   0.961   6.291   3.032
 3349SOL     OW12053   4.614   4.015  11.058
 3349SOL    HW112054   4.607   4.093  11.112
 3349SOL    HW212055   4.524   3.987  11.044
 3350SOL     OW12056   5.444  10.117   0.815
 3350SOL    HW112057   5.366  10.066   0.836
 3350SOL    HW212058   5.435  10.138   0.722
 3351SOL     OW12059   2.410   6.600   7.581
 3351SOL    HW112060   2.385   6.510   7.558
 3351SOL    HW212061   2.431   6.596   7.674
 3352SOL     OW12062   1.819   6.067   2.519
 3352SOL    HW112063   1.862   6.094   2.438
 3352SOL    HW212064   1.797   5.975   2.505
 3353SOL     OW12065   0.067   3.823   7.795
 3353SOL    HW112066   0.017   3.751   7.754
 3353SOL    HW212067   0.096   3.788   7.879
 3354SOL     OW12068   2.813   0.788   5.641
 3354SOL    HW112069   2.748   0.721   5.620
 3354SOL    HW212070   2.892   0.759   5.596
 3355SOL     OW12071   2.266   2.924   4.549
 3355SOL    HW112072   2.258   2.860   4.478
 3355SOL    HW212073   2.185   2.974   4.545
 3356SOL     OW12074   3.614   2.213   0.683
 3356SOL    HW112075   3.686   2.223   0.745
 3356SOL    HW212076   3.645   2.148   0.619
 3357SOL     OW12077   8.390   7.916   4.507
 3357SOL    HW112078   8.375   7.822   4.517
 3357SOL    HW212079   8.418   7.926   4.416
 3358SOL     OW12080   4.751   3.344   8.823
 3358SOL    HW112081   4.809   3.328   8.897
 3358SOL    HW212082   4.688   3.408   8.855
 3359SOL     OW12083  10.507   6.495   9.223
 3359SOL    HW112084  10.531   6.576   9.178
 3359SOL    HW212085  10.516   6.427   9.156
 3360SOL     OW12086   3.148   2.179   4.278
 3360SOL    HW112087   3.094   2.138   4.345
 3360SOL    HW212088   3.190   2.253   4.321
 3361SOL     OW12089   0.971   0.278   3.334
 3361SOL    HW112090   0.884   0.262   3.370
 3361SOL    HW212091   1.014   0.192   3.336
 3362SOL     OW12092   2.829   2.500  10.802
 3362SOL    HW112093   2.759   2.435  10.805
 3362SOL    HW212094   2.785   2.582  10.783
 3363SOL     OW12095  10.925   0.609   9.204
 3363SOL    HW112096  10.875   0.689   9.215
 3363SOL    HW212097  11.012   0.629   9.239
 3364SOL     OW12098   2.723   5.720   1.753
 3364SOL    HW112099   2.724   5.631   1.790
 3364SOL    HW212100   2.633   5.750   1.764
 3365SOL     OW12101   2.783   3.413   3.728
 3365SOL    HW112102   2.819   3.485   3.780
 3365SOL    HW212103   2.783   3.338   3.787
 3366SOL     OW12104   0.834   1.815   2.087
 3366SOL    HW112105   0.890   1.785   2.159
 3366SOL    HW212106   0.892   1.817   2.011
 3367SOL     OW12107   5.052  10.854   3.291
 3367SOL    HW112108   5.002  10.904   3.227
 3367SOL    HW212109   5.125  10.817   3.240
 3368SOL     OW12110   9.583   3.713   8.528
 3368SOL    HW112111   9.583   3.782   8.462
 3368SOL    HW212112   9.492   3.704   8.554
 3369SOL     OW12113   2.783   4.858   7.326
 3369SOL    HW112114   2.739   4.813   7.254
 3369SOL    HW212115   2.813   4.940   7.288
 3370SOL     OW12116   9.041   4.635   6.768
 3370SOL    HW112117   8.956   4.658   6.805
 3370SOL    HW212118   9.069   4.558   6.818
 3371SOL     OW12119   4.005   6.089   6.350
 3371SOL    HW112120   4.051   6.034   6.287
 3371SOL    HW212121   3.930   6.036   6.378
 3372SOL     OW12122   6.576   3.774   1.500
 3372SOL    HW112123   6.550   3.698   1.448
 3372SOL    HW212124   6.665   3.793   1.471
 3373SOL     OW12125   0.133   3.471   4.278
 3373SOL    HW112126   0.078   3.490   4.354
 3373SOL    HW212127   0.212   3.431   4.314
 3374SOL     OW12128   5.087   5.089   8.858
 3374SOL    HW112129   5.101   5.076   8.764
 3374SOL    HW212130   5.140   5.021   8.900
 3375SOL     OW12131   4.594   9.272   5.332
 3375SOL    HW112132   4.556   9.359   5.326
 3375SOL    HW212133   4.598   9.254   5.426
 3376SOL     OW12134   5.359   1.227   7.039
 3376SOL    HW112135   5.445   1.185   7.038
 3376SOL    HW212136   5.374   1.312   7.079
 3377SOL     OW12137  10.330   4.250   6.866
 3377SOL    HW112138  10.329   4.334   6.820
 3377SOL    HW212139  10.302   4.186   6.800
 3378SOL     OW12140  10.187   0.983   7.361
 3378SOL    HW112141  10.178   1.045   7.433
 3378SOL    HW212142  10.212   0.901   7.403
 3379SOL     OW12143   2.177   3.597   8.803
 3379SOL    HW112144   2.181   3.668   8.866
 3379SOL    HW212145   2.156   3.520   8.855
 3380SOL     OW12146   3.517   3.455   6.784
 3380SOL    HW112147   3.435   3.437   6.738
 3380SOL    HW212148   3.490   3.488   6.869
 3381SOL     OW12149   5.196   5.693   2.315
 3381SOL    HW112150   5.239   5.632   2.376
 3381SOL    HW212151   5.234   5.671   2.229
 3382SOL     OW12152   7.755  10.356   6.754
 3382SOL    HW112153   7.831  10.348   6.695
 3382SOL    HW212154   7.792  10.348   6.842
 3383SOL     OW12155   1.645   8.192   2.602
 3383SOL    HW112156   1.684   8.255   2.541
 3383SOL    HW212157   1.677   8.107   2.572
 3384SOL     OW12158   7.566   2.818   3.112
 3384SOL    HW112159   7.651   2.816   3.067
 3384SOL    HW212160   7.506   2.854   3.047
 3385SOL     OW12161  10.000   2.194   3.847
 3385SOL    HW112162   9.916   2.213   3.887
 3385SOL    HW212163  10.020   2.104   3.874
 3386SOL     OW12164  11.058   3.238   7.012
 3386SOL    HW112165  11.143   3.272   6.984
 3386SOL    HW212166  11.046   3.158   6.961
 3387SOL     OW12167   1.102   2.200   5.429
 3387SOL    HW112168   1.054   2.118   5.440
 3387SOL    HW212169   1.155   2.208   5.508
 3388SOL     OW12170   3.540   9.438   2.509
 3388SOL    HW112171   3.503   9.515   2.551
 3388SOL    HW212172   3.466   9.377   2.501
 3389SOL     OW12173   2.757   5.931   7.493
 3389SOL    HW112174   2.796   5.975   7.568
 3389SOL    HW212175   2.768   5.992   7.420
 3390SOL     OW12176   3.447   7.705   1.499
 3390SOL    HW112177   3.540   7.727   1.502
 3390SOL    HW212178   3.444   7.610   1.511
 3391SOL     OW12179   8.404   6.363   3.942
 3391SOL    HW112180   8.452   6.441   3.968
 3391SOL    HW212181   8.312   6.389   3.945
 3392SOL     OW12182   1.758  10.952   7.462
 3392SOL    HW112183   1.747  10.860   7.484
 3392SOL    HW212184   1.677  10.976   7.418
 3393SOL     OW12185  10.022   5.798   5.866
 3393SOL    HW112186  10.070   5.880   5.870
 3393SOL    HW212187   9.964   5.807   5.790
 3394SOL     OW12188   0.822   5.509   6.265
 3394SOL    HW112189   0.883   5.443   6.232
 3394SOL    HW212190   0.793   5.556   6.187
 3395SOL     OW12191   5.390   3.678   9.592
 3395SOL    HW112192   5.414   3.645   9.505
 3395SOL    HW212193   5.300   3.709   9.582
 3396SOL     OW12194  11.055   5.804   3.107
 3396SOL    HW112195  11.073   5.758   3.189
 3396SOL    HW212196  10.960   5.818   3.107
 3397SOL     OW12197   0.812   9.743   0.600
 3397SOL    HW112198   0.823   9.703   0.513
 3397SOL    HW212199   0.735   9.799   0.590
 3398SOL     OW12200   4.626   4.269   1.082
 3398SOL    HW112201   4.563   4.267   1.153
 3398SOL    HW212202   4.666   4.356   1.087
 3399SOL     OW12203   0.568   5.073   7.361
 3399SOL    HW112204   0.627   5.148   7.366
 3399SOL    HW212205   0.624   4.997   7.379
 3400SOL     OW12206   9.192   1.379   0.078
 3400SOL    HW112207   9.126   1.329   0.126
 3400SOL    HW212208   9.145   1.417   0.004
 3401SOL     OW12209   5.041   6.173   9.975
 3401SOL    HW112210   4.997   6.089   9.990
 3401SOL    HW212211   4.982   6.238  10.013
 3402SOL     OW12212   3.928   6.618  11.007
 3402SOL    HW112213   4.003   6.595  10.952
 3402SOL    HW212214   3.866   6.659  10.946
 3403SOL     OW12215   8.604   0.785   8.988
 3403SOL    HW112216   8.688   0.796   8.943
 3403SOL    HW212217   8.599   0.691   9.006
 3404SOL     OW12218   5.220   5.955   4.531
 3404SOL    HW112219   5.148   5.974   4.591
 3404SOL    HW212220   5.290   6.015   4.557
 3405SOL     OW12221   7.900   7.764   9.783
 3405SOL    HW112222   7.860   7.716   9.855
 3405SOL    HW212223   7.994   7.763   9.803
 3406SOL     OW12224   8.072   5.494  10.085
 3406SOL    HW112225   8.142   5.536  10.035
 3406SOL    HW212226   8.011   5.564  10.105
 3407SOL     OW12227   9.406   5.151   7.237
 3407SOL    HW112228   9.347   5.079   7.259
 3407SOL    HW212229   9.486   5.132   7.286
 3408SOL     OW12230   1.146   4.289   4.698
 3408SOL    HW112231   1.059   4.280   4.660
 3408SOL    HW212232   1.173   4.378   4.676
 3409SOL     OW12233   9.002   6.711   4.009
 3409SOL    HW112234   9.016   6.688   4.101
 3409SOL    HW212235   9.014   6.806   4.006
 3410SOL     OW12236   9.204   4.982   7.312
 3410SOL    HW112237   9.156   4.965   7.393
 3410SOL    HW212238   9.219   4.895   7.274
 3411SOL     OW12239   5.574   2.718   5.789
 3411SOL    HW112240   5.555   2.683   5.702
 3411SOL    HW212241   5.626   2.796   5.772
 3412SOL     OW12242   9.915   7.261   3.278
 3412SOL    HW112243   9.991   7.301   3.236
 3412SOL    HW212244   9.844   7.273   3.215
 3413SOL     OW12245  11.033  10.581   5.315
 3413SOL    HW112246  11.082  10.597   5.395
 3413SOL    HW212247  11.020  10.486   5.313
 3414SOL     OW12248   1.217   2.802   3.033
 3414SOL    HW112249   1.270   2.845   2.966
 3414SOL    HW212250   1.269   2.808   3.113
 3415SOL     OW12251   7.411   6.274   0.951
 3415SOL    HW112252   7.483   6.335   0.963
 3415SOL    HW212253   7.453   6.188   0.945
 3416SOL     OW12254   2.553  10.697   0.830
 3416SOL    HW112255   2.616  10.672   0.897
 3416SOL    HW212256   2.480  10.637   0.842
 3417SOL     OW12257   9.177   0.629   5.939
 3417SOL    HW112258   9.179   0.545   5.986
 3417SOL    HW212259   9.186   0.695   6.007
 3418SOL     OW12260   8.134  10.755   7.152
 3418SOL    HW112261   8.068  10.694   7.120
 3418SOL    HW212262   8.086  10.836   7.169
 3419SOL     OW12263   7.983   5.668   7.501
 3419SOL    HW112264   7.962   5.746   7.450
 3419SOL    HW212265   8.075   5.650   7.481
 3420SOL     OW12266   5.916   3.502   7.610
 3420SOL    HW112267   5.976   3.551   7.554
 3420SOL    HW212268   5.853   3.463   7.549
 3421SOL     OW12269   9.383   1.708   8.992
 3421SOL    HW112270   9.416   1.678   8.907
 3421SOL    HW212271   9.443   1.669   9.056
 3422SOL     OW12272   7.178  11.006   4.636
 3422SOL    HW112273   7.158  11.031   4.546
 3422SOL    HW212274   7.147  11.079   4.689
 3423SOL     OW12275   2.479   9.773   2.838
 3423SOL    HW112276   2.503   9.831   2.910
 3423SOL    HW212277   2.550   9.782   2.774
 3424SOL     OW12278   0.105   8.647   9.930
 3424SOL    HW112279   0.100   8.585   9.857
 3424SOL    HW212280   0.089   8.732   9.890
 3425SOL     OW12281   0.955   9.639   0.065
 3425SOL    HW112282   0.918   9.607  -0.017
 3425SOL    HW212283   0.886   9.625   0.130
 3426SOL     OW12284   6.764   7.553   6.684
 3426SOL    HW112285   6.712   7.473   6.673
 3426SOL    HW212286   6.742   7.606   6.607
 3427SOL     OW12287   5.103   5.055   8.331
 3427SOL    HW112288   5.029   5.105   8.365
 3427SOL    HW212289   5.118   5.091   8.243
 3428SOL     OW12290   7.583   7.748   1.477
 3428SOL    HW112291   7.668   7.734   1.519
 3428SOL    HW212292   7.530   7.792   1.543
 3429SOL     OW12293   9.067   2.467   9.393
 3429SOL    HW112294   9.123   2.390   9.380
 3429SOL    HW212295   9.061   2.477   9.488
 3430SOL     OW12296   1.244   3.520   6.736
 3430SOL    HW112297   1.266   3.610   6.759
 3430SOL    HW212298   1.213   3.525   6.645
 3431SOL     OW12299   8.578   3.181   9.751
 3431SOL    HW112300   8.494   3.170   9.706
 3431SOL    HW212301   8.576   3.271   9.783
 3432SOL     OW12302   4.545  11.102   9.662
 3432SOL    HW112303   4.546  11.013   9.628
 3432SOL    HW212304   4.488  11.150   9.602
 3433SOL     OW12305   2.788   4.321   9.996
 3433SOL    HW112306   2.830   4.405   9.979
 3433SOL    HW212307   2.839   4.282  10.067
 3434SOL     OW12308   5.950   5.951   8.217
 3434SOL    HW112309   5.870   5.912   8.251
 3434SOL    HW212310   5.969   5.901   8.137
 3435SOL     OW12311   3.997   4.176   1.302
 3435SOL    HW112312   4.078   4.140   1.264
 3435SOL    HW212313   3.939   4.100   1.309
 3436SOL     OW12314   6.597   3.950   9.519
 3436SOL    HW112315   6.581   3.866   9.563
 3436SOL    HW212316   6.625   4.009   9.589
 3437SOL     OW12317   3.527   5.972   0.055
 3437SOL    HW112318   3.535   6.055   0.008
 3437SOL    HW212319   3.435   5.947   0.045
 3438SOL     OW12320   2.078   8.830   8.682
 3438SOL    HW112321   2.014   8.900   8.670
 3438SOL    HW212322   2.081   8.786   8.597
 3439SOL     OW12323   8.124   2.877   3.896
 3439SOL    HW112324   8.113   2.878   3.801
 3439SOL    HW212325   8.205   2.926   3.911
 3440SOL     OW12326   3.850   8.354   9.137
 3440SOL    HW112327   3.929   8.398   9.106
 3440SOL    HW212328   3.882   8.272   9.176
 3441SOL     OW12329   1.074   6.044   7.048
 3441SOL    HW112330   1.051   5.980   7.115
 3441SOL    HW212331   0.990   6.080   7.019
 3442SOL     OW12332   0.216   1.562   5.233
 3442SOL    HW112333   0.173   1.611   5.163
 3442SOL    HW212334   0.239   1.628   5.298
 3443SOL     OW12335   5.170   5.383   5.016
 3443SOL    HW112336   5.169   5.477   5.034
 3443SOL    HW212337   5.191   5.376   4.923
 3444SOL     OW12338  10.559   0.837   1.452
 3444SOL    HW112339  10.561   0.822   1.546
 3444SOL    HW212340  10.585   0.753   1.414
 3445SOL     OW12341   2.383   0.679   9.152
 3445SOL    HW112342   2.300   0.650   9.190
 3445SOL    HW212343   2.359   0.752   9.095
 3446SOL     OW12344   4.869   6.368  10.048
 3446SOL    HW112345   4.871   6.398  10.139
 3446SOL    HW212346   4.876   6.448   9.996
 3447SOL     OW12347   4.406   3.247   4.586
 3447SOL    HW112348   4.357   3.247   4.503
 3447SOL    HW212349   4.498   3.250   4.559
 3448SOL     OW12350   0.618  10.040   0.300
 3448SOL    HW112351   0.614  10.028   0.205
 3448SOL    HW212352   0.564   9.969   0.335
 3449SOL     OW12353   6.758   6.045   0.096
 3449SOL    HW112354   6.681   6.006   0.137
 3449SOL    HW212355   6.732   6.060   0.005
 3450SOL     OW12356   0.846   5.311   9.945
 3450SOL    HW112357   0.837   5.393   9.992
 3450SOL    HW212358   0.825   5.333   9.854
 3451SOL     OW12359   9.224   5.758   8.665
 3451SOL    HW112360   9.292   5.810   8.708
 3451SOL    HW212361   9.170   5.724   8.736
 3452SOL     OW12362  10.172   8.637   6.862
 3452SOL    HW112363  10.109   8.694   6.905
 3452SOL    HW212364  10.194   8.571   6.927
 3453SOL     OW12365   6.104   2.331   6.920
 3453SOL    HW112366   6.176   2.340   6.857
 3453SOL    HW212367   6.031   2.378   6.880
 3454SOL     OW12368   8.824   3.276   6.707
 3454SOL    HW112369   8.882   3.248   6.777
 3454SOL    HW212370   8.736   3.259   6.740
 3455SOL     OW12371   8.682  10.354   5.145
 3455SOL    HW112372   8.602  10.351   5.092
 3455SOL    HW212373   8.666  10.423   5.209
 3456SOL     OW12374  10.760   8.722   4.605
 3456SOL    HW112375  10.850   8.693   4.620
 3456SOL    HW212376  10.708   8.641   4.609
 3457SOL     OW12377   9.283   1.481   8.101
 3457SOL    HW112378   9.203   1.514   8.060
 3457SOL    HW212379   9.271   1.386   8.104
 3458SOL     OW12380   7.323   6.164   7.355
 3458SOL    HW112381   7.323   6.160   7.450
 3458SOL    HW212382   7.275   6.086   7.328
 3459SOL     OW12383   2.892   6.835   8.767
 3459SOL    HW112384   2.953   6.782   8.818
 3459SOL    HW212385   2.857   6.899   8.829
 3460SOL     OW12386   4.361   6.458  10.971
 3460SOL    HW112387   4.332   6.484  11.058
 3460SOL    HW212388   4.321   6.372  10.957
 3461SOL     OW12389   8.213   7.926   7.957
 3461SOL    HW112390   8.209   7.996   7.892
 3461SOL    HW212391   8.212   7.970   8.041
 3462SOL     OW12392   3.744   2.208   4.349
 3462SOL    HW112393   3.818   2.167   4.394
 3462SOL    HW212394   3.674   2.210   4.414
 3463SOL     OW12395   1.176   8.377   0.038
 3463SOL    HW112396   1.229   8.409   0.111
 3463SOL    HW212397   1.103   8.331   0.080
 3464SOL     OW12398   1.884  10.607   2.530
 3464SOL    HW112399   1.867  10.659   2.451
 3464SOL    HW212400   1.827  10.645   2.597
 3465SOL     OW12401   3.809   3.678   5.418
 3465SOL    HW112402   3.774   3.625   5.346
 3465SOL    HW212403   3.883   3.725   5.379
 3466SOL     OW12404   5.912   4.915   0.719
 3466SOL    HW112405   5.963   4.856   0.662
 3466SOL    HW212406   5.863   4.970   0.658
 3467SOL     OW12407  10.359   4.691   6.001
 3467SOL    HW112408  10.388   4.645   6.080
 3467SOL    HW212409  10.265   4.702   6.012
 3468SOL     OW12410   0.740   0.986   9.860
 3468SOL    HW112411   0.718   1.045   9.788
 3468SOL    HW212412   0.710   1.031   9.938
 3469SOL     OW12413   9.600   1.482   8.564
 3469SOL    HW112414   9.549   1.403   8.545
 3469SOL    HW212415   9.690   1.458   8.541
 3470SOL     OW12416   8.810   6.430   6.181
 3470SOL    HW112417   8.761   6.389   6.252
 3470SOL    HW212418   8.898   6.443   6.216
 3471SOL     OW12419   3.755   1.353  10.112
 3471SOL    HW112420   3.677   1.383  10.159
 3471SOL    HW212421   3.739   1.377  10.020
 3472SOL     OW12422  10.640   2.133   6.424
 3472SOL    HW112423  10.561   2.139   6.477
 3472SOL    HW212424  10.643   2.215   6.375
 3473SOL     OW12425   1.054   0.783   6.678
 3473SOL    HW112426   1.057   0.857   6.738
 3473SOL    HW212427   1.145   0.755   6.670
 3474SOL     OW12428   5.659  10.866  11.013
 3474SOL    HW112429   5.688  10.936  11.071
 3474SOL    HW212430   5.646  10.910  10.928
 3475SOL     OW12431   4.433   4.260   1.270
 3475SOL    HW112432   4.477   4.272   1.354
 3475SOL    HW212433   4.384   4.178   1.280
 3476SOL     OW12434   6.230   1.178   4.310
 3476SOL    HW112435   6.261   1.099   4.355
 3476SOL    HW212436   6.291   1.190   4.237
 3477SOL     OW12437   1.596   5.459   8.883
 3477SOL    HW112438   1.597   5.505   8.799
 3477SOL    HW212439   1.513   5.485   8.923
 3478SOL     OW12440   4.006   5.681   8.762
 3478SOL    HW112441   4.047   5.760   8.796
 3478SOL    HW212442   4.063   5.653   8.690
 3479SOL     OW12443   3.643   4.223   6.511
 3479SOL    HW112444   3.731   4.217   6.548
 3479SOL    HW212445   3.609   4.307   6.541
 3480SOL     OW12446   4.812  10.420   8.852
 3480SOL    HW112447   4.889  10.460   8.893
 3480SOL    HW212448   4.811  10.456   8.763
 3481SOL     OW12449   0.342   8.102   5.344
 3481SOL    HW112450   0.352   8.189   5.306
 3481SOL    HW212451   0.300   8.051   5.275
 3482SOL     OW12452   3.942   6.667   5.979
 3482SOL    HW112453   3.962   6.623   5.896
 3482SOL    HW212454   3.855   6.635   6.002
 3483SOL     OW12455   8.557   1.196   8.893
 3483SOL    HW112456   8.539   1.249   8.970
 3483SOL    HW212457   8.582   1.110   8.928
 3484SOL     OW12458   3.609   0.421   7.997
 3484SOL    HW112459   3.703   0.424   8.015
 3484SOL    HW212460   3.577   0.507   8.021
 3485SOL     OW12461  10.696   1.854   7.764
 3485SOL    HW112462  10.774   1.800   7.749
 3485SOL    HW212463  10.635   1.796   7.810
 3486SOL     OW12464   5.650   3.970   1.565
 3486SOL    HW112465   5.655   3.874   1.568
 3486SOL    HW212466   5.712   3.999   1.632
 3487SOL     OW12467   3.571   1.636   7.483
 3487SOL    HW112468   3.524   1.554   7.468
 3487SOL    HW212469   3.589   1.636   7.577
 3488SOL     OW12470   0.846   1.450   6.686
 3488SOL    HW112471   0.885   1.365   6.709
 3488SOL    HW212472   0.789   1.471   6.760
 3489SOL     OW12473   8.996   1.997  10.200
 3489SOL    HW112474   8.999   2.030  10.289
 3489SOL    HW212475   9.079   2.025  10.161
 3490SOL     OW12476   1.743   3.915   6.895
 3490SOL    HW112477   1.794   3.996   6.898
 3490SOL    HW212478   1.746   3.888   6.803
 3491SOL     OW12479   3.852   5.975   9.641
 3491SOL    HW112480   3.886   5.973   9.551
 3491SOL    HW212481   3.771   5.924   9.637
 3492SOL     OW12482   1.216   3.811   7.792
 3492SOL    HW112483   1.198   3.804   7.698
 3492SOL    HW212484   1.309   3.788   7.800
 3493SOL     OW12485   1.701   0.541   6.419
 3493SOL    HW112486   1.652   0.472   6.373
 3493SOL    HW212487   1.676   0.622   6.374
 3494SOL     OW12488   3.381   2.144  10.346
 3494SOL    HW112489   3.397   2.053  10.318
 3494SOL    HW212490   3.333   2.183  10.273
 3495SOL     OW12491   1.802   0.086   6.343
 3495SOL    HW112492   1.742   0.018   6.374
 3495SOL    HW212493   1.800   0.153   6.411
 3496SOL     OW12494  10.238   0.380   3.158
 3496SOL    HW112495  10.216   0.413   3.071
 3496SOL    HW212496  10.157   0.386   3.208
 3497SOL     OW12497   3.036  10.738   6.197
 3497SOL    HW112498   2.952  10.782   6.184
 3497SOL    HW212499   3.067  10.770   6.281
 3498SOL     OW12500   7.130   1.590  10.804
 3498SOL    HW112501   7.198   1.588  10.737
 3498SOL    HW212502   7.118   1.683  10.823
 3499SOL     OW12503   1.158   1.434   1.027
 3499SOL    HW112504   1.152   1.425   1.122
 3499SOL    HW212505   1.092   1.373   0.993
 3500SOL     OW12506   5.336   5.160   2.371
 3500SOL    HW112507   5.377   5.198   2.448
 3500SOL    HW212508   5.243   5.160   2.391
 3501SOL     OW12509   1.414   4.524   8.893
 3501SOL    HW112510   1.484   4.465   8.864
 3501SOL    HW212511   1.404   4.505   8.986
 3502SOL     OW12512   4.682   6.574   9.562
 3502SOL    HW112513   4.662   6.607   9.649
 3502SOL    HW212514   4.617   6.615   9.505
 3503SOL     OW12515   2.851   1.870   1.899
 3503SOL    HW112516   2.874   1.831   1.983
 3503SOL    HW212517   2.756   1.881   1.903
 3504SOL     OW12518   4.847   5.165   4.358
 3504SOL    HW112519   4.767   5.217   4.366
 3504SOL    HW212520   4.881   5.159   4.447
 3505SOL     OW12521  10.001   1.262   7.866
 3505SOL    HW112522   9.915   1.282   7.828
 3505SOL    HW212523  10.045   1.347   7.872
 3506SOL     OW12524   1.410   8.664   4.668
 3506SOL    HW112525   1.494   8.644   4.625
 3506SOL    HW212526   1.431   8.667   4.761
 3507SOL     OW12527   2.532   6.086   9.220
 3507SOL    HW112528   2.493   6.009   9.179
 3507SOL    HW212529   2.472   6.157   9.199
 3508SOL     OW12530   4.094   5.274   5.267
 3508SOL    HW112531   4.044   5.284   5.186
 3508SOL    HW212532   4.051   5.201   5.312
 3509SOL     OW12533   3.039   0.394   0.786
 3509SOL    HW112534   3.029   0.466   0.724
 3509SOL    HW212535   2.951   0.357   0.795
 3510SOL     OW12536  10.296   6.937   9.047
 3510SOL    HW112537  10.273   6.961   8.957
 3510SOL    HW212538  10.269   7.012   9.100
 3511SOL     OW12539  10.107   0.557  10.325
 3511SOL    HW112540  10.117   0.469  10.361
 3511SOL    HW212541  10.144   0.615  10.391
 3512SOL     OW12542   5.164   0.544   5.716
 3512SOL    HW112543   5.201   0.545   5.804
 3512SOL    HW212544   5.239   0.527   5.658
 3513SOL     OW12545   0.840   3.505  10.243
 3513SOL    HW112546   0.757   3.460  10.228
 3513SOL    HW212547   0.832   3.588  10.196
 3514SOL     OW12548   3.730   3.615   1.226
 3514SOL    HW112549   3.747   3.523   1.202
 3514SOL    HW212550   3.655   3.611   1.285
 3515SOL     OW12551   2.953   5.160  10.120
 3515SOL    HW112552   2.922   5.237  10.167
 3515SOL    HW212553   3.048   5.168  10.121
 3516SOL     OW12554   1.755   4.918  10.634
 3516SOL    HW112555   1.705   4.937  10.713
 3516SOL    HW212556   1.746   4.996  10.580
 3517SOL     OW12557   2.829   6.417   1.298
 3517SOL    HW112558   2.764   6.487   1.305
 3517SOL    HW212559   2.821   6.386   1.208
 3518SOL     OW12560   6.658   1.870   1.159
 3518SOL    HW112561   6.703   1.786   1.171
 3518SOL    HW212562   6.581   1.864   1.215
 3519SOL     OW12563   4.445   4.305   9.616
 3519SOL    HW112564   4.510   4.243   9.584
 3519SOL    HW212565   4.386   4.252   9.670
 3520SOL     OW12566   1.785   3.316   5.982
 3520SOL    HW112567   1.806   3.359   5.899
 3520SOL    HW212568   1.832   3.232   5.977
 3521SOL     OW12569   3.320   5.630   5.783
 3521SOL    HW112570   3.364   5.708   5.750
 3521SOL    HW212571   3.275   5.658   5.862
 3522SOL     OW12572   6.093   1.513  10.309
 3522SOL    HW112573   6.172   1.471  10.274
 3522SOL    HW212574   6.118   1.604  10.323
 3523SOL     OW12575   5.070   4.795   8.657
 3523SOL    HW112576   5.139   4.746   8.612
 3523SOL    HW212577   5.103   4.885   8.660
 3524SOL     OW12578   3.691   3.767   3.029
 3524SOL    HW112579   3.640   3.821   2.968
 3524SOL    HW212580   3.652   3.680   3.022
 3525SOL     OW12581   9.510   1.039  11.081
 3525SOL    HW112582   9.424   1.079  11.089
 3525SOL    HW212583   9.522   0.990  11.162
 3526SOL     OW12584   8.551   4.149   7.926
 3526SOL    HW112585   8.621   4.205   7.959
 3526SOL    HW212586   8.483   4.153   7.993
 3527SOL     OW12587   3.701  11.027   9.634
 3527SOL    HW112588   3.664  11.051   9.549
 3527SOL    HW212589   3.795  11.020   9.618
 3528SOL     OW12590   2.989   2.349   5.962
 3528SOL    HW112591   2.972   2.386   6.048
 3528SOL    HW212592   3.082   2.328   5.962
 3529SOL     OW12593   8.751   8.300   6.537
 3529SOL    HW112594   8.842   8.276   6.521
 3529SOL    HW212595   8.745   8.311   6.632
 3530SOL     OW12596   4.497   5.653   7.896
 3530SOL    HW112597   4.493   5.591   7.823
 3530SOL    HW212598   4.527   5.734   7.856
 3531SOL     OW12599   2.367   4.332  10.116
 3531SOL    HW112600   2.358   4.386  10.037
 3531SOL    HW212601   2.451   4.288  10.105
 3532SOL     OW12602   3.012   1.117  10.146
 3532SOL    HW112603   2.941   1.180  10.138
 3532SOL    HW212604   3.029   1.088  10.056
 3533SOL     OW12605   7.774   5.040   9.380
 3533SOL    HW112606   7.705   5.006   9.436
 3533SOL    HW212607   7.744   5.021   9.291
 3534SOL     OW12608   8.575   4.284   8.458
 3534SOL    HW112609   8.532   4.214   8.507
 3534SOL    HW212610   8.664   4.287   8.493
 3535SOL     OW12611   4.474   8.653   8.482
 3535SOL    HW112612   4.540   8.656   8.412
 3535SOL    HW212613   4.474   8.561   8.510
 3536SOL     OW12614   9.679   7.050   6.405
 3536SOL    HW112615   9.673   7.073   6.497
 3536SOL    HW212616   9.696   7.133   6.361
 3537SOL     OW12617   6.647   2.793   7.333
 3537SOL    HW112618   6.684   2.802   7.245
 3537SOL    HW212619   6.590   2.869   7.343
 3538SOL     OW12620   8.536   4.647   6.412
 3538SOL    HW112621   8.491   4.671   6.493
 3538SOL    HW212622   8.576   4.562   6.431
 3539SOL     OW12623   0.551   8.933   7.441
 3539SOL    HW112624   0.466   8.957   7.405
 3539SOL    HW212625   0.567   8.996   7.511
 3540SOL     OW12626   0.628   6.096   0.987
 3540SOL    HW112627   0.658   6.174   1.032
 3540SOL    HW212628   0.537   6.086   1.013
 3541SOL     OW12629   7.343   9.660   7.123
 3541SOL    HW112630   7.412   9.664   7.057
 3541SOL    HW212631   7.388   9.631   7.202
 3542SOL     OW12632   1.260   2.123   4.390
 3542SOL    HW112633   1.242   2.137   4.483
 3542SOL    HW212634   1.354   2.105   4.386
 3543SOL     OW12635   5.329   0.729   8.726
 3543SOL    HW112636   5.241   0.730   8.688
 3543SOL    HW212637   5.346   0.636   8.745
 3544SOL     OW12638   3.360   9.271   7.996
 3544SOL    HW112639   3.275   9.310   8.015
 3544SOL    HW212640   3.365   9.195   8.055
 3545SOL     OW12641   0.452   7.383   1.103
 3545SOL    HW112642   0.390   7.314   1.078
 3545SOL    HW212643   0.397   7.458   1.126
 3546SOL     OW12644   3.311   7.637   1.896
 3546SOL    HW112645   3.235   7.651   1.952
 3546SOL    HW212646   3.290   7.558   1.846
 3547SOL     OW12647   4.384   2.274   5.491
 3547SOL    HW112648   4.377   2.329   5.569
 3547SOL    HW212649   4.469   2.297   5.453
 3548SOL     OW12650   7.148   1.476   9.746
 3548SOL    HW112651   7.097   1.509   9.672
 3548SOL    HW212652   7.119   1.528   9.820
 3549SOL     OW12653   4.579   5.731   2.469
 3549SOL    HW112654   4.527   5.770   2.539
 3549SOL    HW212655   4.652   5.791   2.457
 3550SOL     OW12656   8.308   0.069   8.619
 3550SOL    HW112657   8.261  -0.005   8.581
 3550SOL    HW212658   8.371   0.029   8.679
 3551SOL     OW12659   4.653   7.998   9.764
 3551SOL    HW112660   4.713   7.993   9.838
 3551SOL    HW212661   4.598   8.074   9.783
 3552SOL     OW12662   0.259   4.310   8.934
 3552SOL    HW112663   0.233   4.274   8.849
 3552SOL    HW212664   0.179   4.305   8.987
 3553SOL     OW12665  10.384   7.428   6.201
 3553SOL    HW112666  10.339   7.444   6.283
 3553SOL    HW212667  10.453   7.365   6.223
 3554SOL     OW12668   0.435   7.498   9.204
 3554SOL    HW112669   0.446   7.543   9.120
 3554SOL    HW212670   0.340   7.490   9.214
 3555SOL     OW12671   0.215   0.684   8.107
 3555SOL    HW112672   0.213   0.598   8.064
 3555SOL    HW212673   0.199   0.665   8.199
 3556SOL     OW12674  11.018   9.345   7.835
 3556SOL    HW112675  11.035   9.347   7.929
 3556SOL    HW212676  11.000   9.436   7.812
 3557SOL     OW12677   0.833   2.444   8.019
 3557SOL    HW112678   0.919   2.426   7.981
 3557SOL    HW212679   0.821   2.538   8.007
 3558SOL     OW12680   0.849   2.385   0.762
 3558SOL    HW112681   0.860   2.320   0.831
 3558SOL    HW212682   0.791   2.451   0.799
 3559SOL     OW12683   0.656   0.104   1.400
 3559SOL    HW112684   0.613   0.158   1.466
 3559SOL    HW212685   0.684   0.166   1.332
 3560SOL     OW12686   2.604   2.153   4.814
 3560SOL    HW112687   2.560   2.069   4.827
 3560SOL    HW212688   2.697   2.133   4.824
 3561SOL     OW12689   8.080   2.708   6.500
 3561SOL    HW112690   8.042   2.643   6.441
 3561SOL    HW212691   8.031   2.698   6.581
 3562SOL     OW12692   0.312   8.846   1.031
 3562SOL    HW112693   0.343   8.800   1.109
 3562SOL    HW212694   0.390   8.888   0.995
 3563SOL     OW12695   8.031   8.464   0.346
 3563SOL    HW112696   8.070   8.417   0.272
 3563SOL    HW212697   8.027   8.398   0.416
 3564SOL     OW12698   3.385   0.275   8.083
 3564SOL    HW112699   3.463   0.310   8.039
 3564SOL    HW212700   3.404   0.284   8.176
 3565SOL     OW12701  10.588   5.074  10.005
 3565SOL    HW112702  10.623   5.152  10.047
 3565SOL    HW212703  10.648   5.004  10.030
 3566SOL     OW12704   1.647   4.454   0.412
 3566SOL    HW112705   1.636   4.413   0.326
 3566SOL    HW212706   1.736   4.490   0.410
 3567SOL     OW12707   3.201   0.318   8.450
 3567SOL    HW112708   3.294   0.315   8.425
 3567SOL    HW212709   3.202   0.310   8.545
 3568SOL     OW12710   9.471   4.657   9.739
 3568SOL    HW112711   9.533   4.707   9.792
 3568SOL    HW212712   9.516   4.575   9.720
 3569SOL     OW12713  10.434   9.727   9.717
 3569SOL    HW112714  10.442   9.665   9.644
 3569SOL    HW212715  10.518   9.773   9.719
 3570SOL     OW12716   8.652   4.195   5.133
 3570SOL    HW112717   8.643   4.130   5.062
 3570SOL    HW212718   8.731   4.244   5.110
 3571SOL     OW12719   9.469   1.781   0.769
 3571SOL    HW112720   9.488   1.768   0.862
 3571SOL    HW212721   9.384   1.739   0.756
 3572SOL     OW12722  10.789   9.791   7.468
 3572SOL    HW112723  10.877   9.772   7.435
 3572SOL    HW212724  10.803   9.858   7.535
 3573SOL     OW12725   7.036   2.115   8.201
 3573SOL    HW112726   7.067   2.076   8.119
 3573SOL    HW212727   6.942   2.096   8.203
 3574SOL     OW12728   0.163  10.899   7.484
 3574SOL    HW112729   0.205  10.950   7.415
 3574SOL    HW212730   0.235  10.858   7.531
 3575SOL     OW12731   9.494   3.420   4.793
 3575SOL    HW112732   9.566   3.359   4.774
 3575SOL    HW212733   9.534   3.507   4.786
 3576SOL     OW12734   2.903   9.071   0.480
 3576SOL    HW112735   2.911   8.996   0.421
 3576SOL    HW212736   2.992   9.084   0.514
 3577SOL     OW12737   3.919   3.775   6.468
 3577SOL    HW112738   3.926   3.848   6.406
 3577SOL    HW212739   3.860   3.713   6.425
 3578SOL     OW12740   0.649   7.207   5.617
 3578SOL    HW112741   0.658   7.135   5.679
 3578SOL    HW212742   0.651   7.164   5.531
 3579SOL     OW12743   8.530   8.148   8.089
 3579SOL    HW112744   8.516   8.224   8.033
 3579SOL    HW212745   8.620   8.121   8.071
 3580SOL     OW12746   2.400   9.512   6.256
 3580SOL    HW112747   2.384   9.425   6.293
 3580SOL    HW212748   2.323   9.529   6.201
 3581SOL     OW12749   4.981   3.350   6.353
 3581SOL    HW112750   4.987   3.336   6.447
 3581SOL    HW212751   4.968   3.262   6.316
 3582SOL     OW12752   7.212   0.214   2.814
 3582SOL    HW112753   7.258   0.157   2.875
 3582SOL    HW212754   7.254   0.299   2.824
 3583SOL     OW12755  10.215   2.693   6.743
 3583SOL    HW112756  10.189   2.601   6.735
 3583SOL    HW212757  10.158   2.728   6.811
 3584SOL     OW12758  10.160   9.009   6.460
 3584SOL    HW112759  10.108   8.962   6.524
 3584SOL    HW212760  10.172   9.096   6.497
 3585SOL     OW12761   7.917  10.200   5.821
 3585SOL    HW112762   7.863  10.217   5.897
 3585SOL    HW212763   7.857  10.204   5.747
 3586SOL     OW12764   2.193   6.134   7.560
 3586SOL    HW112765   2.130   6.161   7.626
 3586SOL    HW212766   2.140   6.112   7.483
 3587SOL     OW12767   9.057   1.221  10.560
 3587SOL    HW112768   9.068   1.316  10.556
 3587SOL    HW212769   8.963   1.206  10.548
 3588SOL     OW12770   3.597   6.863   3.449
 3588SOL    HW112771   3.531   6.800   3.479
 3588SOL    HW212772   3.596   6.932   3.514
 3589SOL     OW12773   4.806  10.051  10.806
 3589SOL    HW112774   4.759  10.007  10.734
 3589SOL    HW212775   4.822  10.139  10.773
 3590SOL     OW12776   4.023  10.432   3.362
 3590SOL    HW112777   3.987  10.398   3.444
 3590SOL    HW212778   3.997  10.524   3.360
 3591SOL     OW12779   6.717   2.387   1.110
 3591SOL    HW112780   6.693   2.420   1.196
 3591SOL    HW212781   6.708   2.292   1.117
 3592SOL     OW12782   5.654   3.619   9.267
 3592SOL    HW112783   5.610   3.686   9.318
 3592SOL    HW212784   5.739   3.657   9.245
 3593SOL     OW12785   6.837   8.141   9.491
 3593SOL    HW112786   6.885   8.135   9.574
 3593SOL    HW212787   6.764   8.080   9.501
 3594SOL     OW12788   2.585   7.261   8.998
 3594SOL    HW112789   2.598   7.238   9.090
 3594SOL    HW212790   2.613   7.352   8.991
 3595SOL     OW12791   1.799   2.207   0.344
 3595SOL    HW112792   1.856   2.131   0.331
 3595SOL    HW212793   1.856   2.282   0.328
 3596SOL     OW12794   8.947   3.629   5.242
 3596SOL    HW112795   9.035   3.591   5.241
 3596SOL    HW212796   8.889   3.553   5.244
 3597SOL     OW12797   2.697   3.404   8.154
 3597SOL    HW112798   2.733   3.316   8.140
 3597SOL    HW212799   2.672   3.405   8.246
 3598SOL     OW12800   7.548   3.652   9.523
 3598SOL    HW112801   7.459   3.682   9.506
 3598SOL    HW212802   7.559   3.660   9.617
 3599SOL     OW12803   8.149   0.930   2.142
 3599SOL    HW112804   8.148   0.970   2.055
 3599SOL    HW212805   8.235   0.888   2.148
 3600SOL     OW12806   2.193   6.711   8.637
 3600SOL    HW112807   2.212   6.718   8.730
 3600SOL    HW212808   2.205   6.618   8.617
 3601SOL     OW12809   0.756   8.860   7.917
 3601SOL    HW112810   0.672   8.842   7.874
 3601SOL    HW212811   0.795   8.773   7.931
 3602SOL     OW12812   0.002   4.732   8.700
 3602SOL    HW112813  -0.005   4.639   8.721
 3602SOL    HW212814   0.019   4.734   8.606
 3603SOL     OW12815   1.981   8.887   9.482
 3603SOL    HW112816   1.982   8.955   9.415
 3603SOL    HW212817   2.067   8.892   9.523
 3604SOL     OW12818   3.492   5.109  10.379
 3604SOL    HW112819   3.584   5.120  10.403
 3604SOL    HW212820   3.451   5.072  10.457
 3605SOL     OW12821   5.389   1.395   7.461
 3605SOL    HW112822   5.347   1.481   7.460
 3605SOL    HW212823   5.436   1.391   7.544
 3606SOL     OW12824   1.039  10.090   3.254
 3606SOL    HW112825   1.101  10.128   3.191
 3606SOL    HW212826   1.047  10.145   3.332
 3607SOL     OW12827  10.651   0.057   0.196
 3607SOL    HW112828  10.635   0.109   0.118
 3607SOL    HW212829  10.609   0.106   0.267
 3608SOL     OW12830   3.060   5.151   2.006
 3608SOL    HW112831   3.048   5.071   1.954
 3608SOL    HW212832   3.110   5.122   2.082
 3609SOL     OW12833   9.398   7.815   4.674
 3609SOL    HW112834   9.453   7.766   4.735
 3609SOL    HW212835   9.319   7.836   4.723
 3610SOL     OW12836  10.914   1.538   1.570
 3610SOL    HW112837  10.914   1.546   1.665
 3610SOL    HW212838  10.848   1.471   1.551
 3611SOL     OW12839   0.115   4.828   8.072
 3611SOL    HW112840   0.146   4.914   8.044
 3611SOL    HW212841   0.194   4.778   8.092
 3612SOL     OW12842   1.449   3.272   3.396
 3612SOL    HW112843   1.539   3.297   3.417
 3612SOL    HW212844   1.414   3.346   3.347
 3613SOL     OW12845   9.644   6.124   6.137
 3613SOL    HW112846   9.724   6.144   6.185
 3613SOL    HW212847   9.668   6.132   6.044
 3614SOL     OW12848   7.606  10.354   7.141
 3614SOL    HW112849   7.569  10.270   7.112
 3614SOL    HW212850   7.618  10.404   7.060
 3615SOL     OW12851   2.193   6.798   7.665
 3615SOL    HW112852   2.261   6.743   7.704
 3615SOL    HW212853   2.207   6.884   7.703
 3616SOL     OW12854   3.354   3.844   8.864
 3616SOL    HW112855   3.269   3.854   8.821
 3616SOL    HW212856   3.375   3.931   8.897
 3617SOL     OW12857   9.319   2.058   5.584
 3617SOL    HW112858   9.290   2.062   5.493
 3617SOL    HW212859   9.398   2.112   5.586
 3618SOL     OW12860   3.897   7.886  10.159
 3618SOL    HW112861   3.990   7.908  10.155
 3618SOL    HW212862   3.881   7.867  10.251
 3619SOL     OW12863   1.272   6.850   5.694
 3619SOL    HW112864   1.199   6.866   5.634
 3619SOL    HW212865   1.253   6.764   5.732
 3620SOL     OW12866   9.295   0.584   7.232
 3620SOL    HW112867   9.321   0.675   7.221
 3620SOL    HW212868   9.238   0.566   7.157
 3621SOL     OW12869   9.712   9.627  10.575
 3621SOL    HW112870   9.645   9.559  10.567
 3621SOL    HW212871   9.756   9.608  10.658
 3622SOL     OW12872   8.858   5.928   2.344
 3622SOL    HW112873   8.847   5.853   2.403
 3622SOL    HW212874   8.836   6.004   2.397
 3623SOL     OW12875   5.088   7.545   6.395
 3623SOL    HW112876   4.999   7.570   6.417
 3623SOL    HW212877   5.140   7.623   6.411
 3624SOL     OW12878   3.160   4.135  10.396
 3624SOL    HW112879   3.152   4.218  10.350
 3624SOL    HW212880   3.151   4.157  10.488
 3625SOL     OW12881   0.230   4.846   8.526
 3625SOL    HW112882   0.198   4.760   8.496
 3625SOL    HW212883   0.265   4.829   8.613
 3626SOL     OW12884  10.751   1.388   5.525
 3626SOL    HW112885  10.787   1.369   5.438
 3626SOL    HW212886  10.735   1.301   5.563
 3627SOL     OW12887   9.765   1.131   6.232
 3627SOL    HW112888   9.686   1.183   6.243
 3627SOL    HW212889   9.742   1.044   6.264
 3628SOL     OW12890   5.003   4.916   1.913
 3628SOL    HW112891   4.971   4.945   1.998
 3628SOL    HW212892   4.927   4.875   1.871
 3629SOL     OW12893   8.800   4.333   6.645
 3629SOL    HW112894   8.802   4.354   6.738
 3629SOL    HW212895   8.836   4.244   6.640
 3630SOL     OW12896   0.777   4.944  10.135
 3630SOL    HW112897   0.700   5.000  10.143
 3630SOL    HW212898   0.851   5.003  10.148
 3631SOL     OW12899   4.956   4.143   1.804
 3631SOL    HW112900   5.015   4.215   1.824
 3631SOL    HW212901   4.994   4.102   1.726
 3632SOL     OW12902   3.808   2.391   4.866
 3632SOL    HW112903   3.717   2.418   4.876
 3632SOL    HW212904   3.809   2.299   4.892
 3633SOL     OW12905   5.919   6.219   8.185
 3633SOL    HW112906   5.879   6.213   8.098
 3633SOL    HW212907   5.951   6.130   8.202
 3634SOL     OW12908   8.857   6.136   9.590
 3634SOL    HW112909   8.883   6.046   9.609
 3634SOL    HW212910   8.925   6.189   9.631
 3635SOL     OW12911   6.348   2.549   8.468
 3635SOL    HW112912   6.420   2.600   8.504
 3635SOL    HW212913   6.279   2.613   8.451
 3636SOL     OW12914   2.344  11.046   7.302
 3636SOL    HW112915   2.424  11.003   7.332
 3636SOL    HW212916   2.312  11.094   7.378
 3637SOL     OW12917   1.589  10.019   7.762
 3637SOL    HW112918   1.644  10.017   7.840
 3637SOL    HW212919   1.523   9.951   7.777
 3638SOL     OW12920   6.333   5.917   9.775
 3638SOL    HW112921   6.389   5.994   9.771
 3638SOL    HW212922   6.328   5.887   9.684
 3639SOL     OW12923   9.344  10.675   5.905
 3639SOL    HW112924   9.355  10.730   5.982
 3639SOL    HW212925   9.432  10.644   5.885
 3640SOL     OW12926   3.577   6.930   3.176
 3640SOL    HW112927   3.605   6.901   3.263
 3640SOL    HW212928   3.505   6.871   3.153
 3641SOL     OW12929   4.118   2.605   0.530
 3641SOL    HW112930   4.048   2.557   0.574
 3641SOL    HW212931   4.139   2.677   0.589
 3642SOL     OW12932   1.548   7.985   0.202
 3642SOL    HW112933   1.609   8.049   0.238
 3642SOL    HW212934   1.570   7.903   0.246
 3643SOL     OW12935   0.819   6.075   4.281
 3643SOL    HW112936   0.776   5.989   4.277
 3643SOL    HW212937   0.751   6.135   4.310
 3644SOL     OW12938   1.260   2.906   1.154
 3644SOL    HW112939   1.208   2.829   1.178
 3644SOL    HW212940   1.345   2.870   1.129
 3645SOL     OW12941   7.569   2.547   2.059
 3645SOL    HW112942   7.500   2.483   2.078
 3645SOL    HW212943   7.575   2.600   2.138
 3646SOL     OW12944  10.342   3.015   5.799
 3646SOL    HW112945  10.274   2.950   5.817
 3646SOL    HW212946  10.334   3.078   5.870
 3647SOL     OW12947   7.854   8.670   9.817
 3647SOL    HW112948   7.935   8.701   9.776
 3647SOL    HW212949   7.820   8.604   9.756
 3648SOL     OW12950   9.715   9.508   6.370
 3648SOL    HW112951   9.796   9.467   6.400
 3648SOL    HW212952   9.690   9.457   6.292
 3649SOL     OW12953   4.985   0.952   7.054
 3649SOL    HW112954   4.976   0.969   7.147
 3649SOL    HW212955   5.013   0.860   7.049
 3650SOL     OW12956   1.586   2.449  10.122
 3650SOL    HW112957   1.570   2.390  10.195
 3650SOL    HW212958   1.549   2.533  10.150
 3651SOL     OW12959   3.441   0.292   8.367
 3651SOL    HW112960   3.486   0.296   8.451
 3651SOL    HW212961   3.451   0.201   8.339
 3652SOL     OW12962   3.794   8.680   9.631
 3652SOL    HW112963   3.798   8.628   9.550
 3652SOL    HW212964   3.842   8.627   9.695
 3653SOL     OW12965   2.936   9.890   8.636
 3653SOL    HW112966   2.871   9.824   8.614
 3653SOL    HW212967   2.889   9.953   8.689
 3654SOL     OW12968  10.639   3.430   3.433
 3654SOL    HW112969  10.661   3.519   3.408
 3654SOL    HW212970  10.711   3.377   3.397
 3655SOL     OW12971   0.485   3.652   3.950
 3655SOL    HW112972   0.544   3.593   3.998
 3655SOL    HW212973   0.529   3.737   3.952
 3656SOL     OW12974   7.723   1.690   9.964
 3656SOL    HW112975   7.810   1.699   9.926
 3656SOL    HW212976   7.667   1.665   9.890
 3657SOL     OW12977   2.642   0.313   6.514
 3657SOL    HW112978   2.634   0.399   6.474
 3657SOL    HW212979   2.564   0.305   6.569
 3658SOL     OW12980   8.983  10.624   2.812
 3658SOL    HW112981   8.942  10.647   2.728
 3658SOL    HW212982   9.070  10.592   2.788
 3659SOL     OW12983   6.191   3.909   9.996
 3659SOL    HW112984   6.132   3.899  10.070
 3659SOL    HW212985   6.141   3.876   9.921
 3660SOL     OW12986   5.352   5.575  10.041
 3660SOL    HW112987   5.347   5.535   9.954
 3660SOL    HW212988   5.301   5.516  10.097
 3661SOL     OW12989  10.060   5.429   1.826
 3661SOL    HW112990  10.087   5.360   1.764
 3661SOL    HW212991   9.967   5.413   1.841
 3662SOL     OW12992   6.986   3.471   2.378
 3662SOL    HW112993   6.970   3.508   2.291
 3662SOL    HW212994   7.081   3.462   2.383
 3663SOL     OW12995   0.394   4.474   0.645
 3663SOL    HW112996   0.467   4.413   0.655
 3663SOL    HW212997   0.373   4.501   0.734
 3664SOL     OW12998   0.041   7.406   0.053
 3664SOL    HW112999   0.037   7.501   0.063
 3664SOL    HW213000   0.121   7.380   0.099
 3665SOL     OW13001   9.986   5.302  10.408
 3665SOL    HW113002  10.040   5.223  10.418
 3665SOL    HW213003   9.906   5.282  10.457
 3666SOL     OW13004   9.822   5.671   0.914
 3666SOL    HW113005   9.791   5.580   0.910
 3666SOL    HW213006   9.791   5.710   0.832
 3667SOL     OW13007   6.659   5.837   0.618
 3667SOL    HW113008   6.641   5.785   0.539
 3667SOL    HW213009   6.753   5.854   0.613
 3668SOL     OW13010   1.277   1.136  10.542
 3668SOL    HW113011   1.283   1.091  10.626
 3668SOL    HW213012   1.351   1.102  10.491
 3669SOL     OW13013   8.494  10.432   3.030
 3669SOL    HW113014   8.528  10.436   3.119
 3669SOL    HW213015   8.438  10.355   3.029
 3670SOL     OW13016   7.244   4.880   9.438
 3670SOL    HW113017   7.328   4.843   9.411
 3670SOL    HW213018   7.207   4.814   9.496
 3671SOL     OW13019   9.188  10.754   1.295
 3671SOL    HW113020   9.230  10.696   1.231
 3671SOL    HW213021   9.094  10.741   1.281
 3672SOL     OW13022   5.050   5.526   8.179
 3672SOL    HW113023   4.985   5.596   8.179
 3672SOL    HW213024   5.084   5.525   8.089
 3673SOL     OW13025   8.672   3.437  10.391
 3673SOL    HW113026   8.656   3.477  10.476
 3673SOL    HW213027   8.591   3.451  10.341
 3674SOL     OW13028   2.401   4.503   1.417
 3674SOL    HW113029   2.346   4.466   1.348
 3674SOL    HW213030   2.364   4.469   1.498
 3675SOL     OW13031   9.470   4.417   4.828
 3675SOL    HW113032   9.436   4.367   4.902
 3675SOL    HW213033   9.541   4.469   4.865
 3676SOL     OW13034  10.244   8.774   8.599
 3676SOL    HW113035  10.265   8.809   8.512
 3676SOL    HW213036  10.268   8.844   8.660
 3677SOL     OW13037  10.228  10.188   3.568
 3677SOL    HW113038  10.286  10.159   3.497
 3677SOL    HW213039  10.145  10.208   3.524
 3678SOL     OW13040   6.905   4.864   1.519
 3678SOL    HW113041   6.848   4.810   1.573
 3678SOL    HW213042   6.871   4.953   1.528
 3679SOL     OW13043  10.525  10.860   9.738
 3679SOL    HW113044  10.537  10.900   9.824
 3679SOL    HW213045  10.610  10.871   9.694
 3680SOL     OW13046   0.658   5.574  10.237
 3680SOL    HW113047   0.715   5.615  10.302
 3680SOL    HW213048   0.589   5.532  10.288
 3681SOL     OW13049  10.960   4.392   7.861
 3681SOL    HW113050  11.054   4.409   7.855
 3681SOL    HW213051  10.934   4.374   7.771
 3682SOL     OW13052   8.942   3.201   1.390
 3682SOL    HW113053   8.927   3.212   1.484
 3682SOL    HW213054   8.871   3.249   1.348
 3683SOL     OW13055   9.489   0.479   4.723
 3683SOL    HW113056   9.406   0.470   4.769
 3683SOL    HW213057   9.476   0.432   4.640
 3684SOL     OW13058   8.983   6.458   9.027
 3684SOL    HW113059   8.917   6.489   9.089
 3684SOL    HW213060   9.006   6.535   8.976
 3685SOL     OW13061   0.741   3.124   1.295
 3685SOL    HW113062   0.671   3.120   1.230
 3685SOL    HW213063   0.822   3.118   1.243
 3686SOL     OW13064   1.609   7.966   2.059
 3686SOL    HW113065   1.606   8.056   2.027
 3686SOL    HW213066   1.530   7.925   2.023
 3687SOL     OW13067  11.092   9.918   8.153
 3687SOL    HW113068  11.094   9.959   8.239
 3687SOL    HW213069  11.029   9.846   8.161
 3688SOL     OW13070   9.332   6.971   9.312
 3688SOL    HW113071   9.364   6.902   9.253
 3688SOL    HW213072   9.315   7.045   9.254
 3689SOL     OW13073   4.836   3.240   0.025
 3689SOL    HW113074   4.767   3.224  -0.039
 3689SOL    HW213075   4.917   3.230  -0.024
 3690SOL     OW13076   2.017   4.022   4.737
 3690SOL    HW113077   2.052   4.110   4.722
 3690SOL    HW213078   2.092   3.972   4.769
 3691SOL     OW13079   4.706   2.494   1.790
 3691SOL    HW113080   4.699   2.453   1.703
 3691SOL    HW213081   4.800   2.498   1.807
 3692SOL     OW13082   9.028   7.971   4.149
 3692SOL    HW113083   8.980   7.889   4.136
 3692SOL    HW213084   9.055   7.997   4.060
 3693SOL     OW13085   6.532   4.252   9.441
 3693SOL    HW113086   6.593   4.226   9.372
 3693SOL    HW213087   6.534   4.179   9.503
 3694SOL     OW13088   8.904   6.048   8.327
 3694SOL    HW113089   8.936   5.964   8.294
 3694SOL    HW213090   8.970   6.075   8.391
 3695SOL     OW13091   6.101   3.159   2.872
 3695SOL    HW113092   6.072   3.159   2.780
 3695SOL    HW213093   6.151   3.240   2.881
 3696SOL     OW13094   4.859  10.547   6.122
 3696SOL    HW113095   4.874  10.456   6.149
 3696SOL    HW213096   4.764  10.559   6.128
 3697SOL     OW13097   2.308   1.050   2.885
 3697SOL    HW113098   2.378   1.026   2.945
 3697SOL    HW213099   2.249   1.105   2.937
 3698SOL     OW13100  10.915   2.098   6.331
 3698SOL    HW113101  10.860   2.038   6.381
 3698SOL    HW213102  10.872   2.183   6.339
 3699SOL     OW13103   3.644   0.528  10.590
 3699SOL    HW113104   3.603   0.449  10.626
 3699SOL    HW213105   3.729   0.533  10.633
 3700SOL     OW13106   2.217   2.126   8.380
 3700SOL    HW113107   2.281   2.062   8.411
 3700SOL    HW213108   2.147   2.073   8.342
 3701SOL     OW13109   8.407   6.671   2.505
 3701SOL    HW113110   8.432   6.763   2.501
 3701SOL    HW213111   8.416   6.640   2.415
 3702SOL     OW13112   3.829  10.249   7.297
 3702SOL    HW113113   3.759  10.184   7.301
 3702SOL    HW213114   3.901  10.203   7.253
 3703SOL     OW13115   9.946   3.536   7.049
 3703SOL    HW113116   9.957   3.441   7.049
 3703SOL    HW213117   9.857   3.550   7.018
 3704SOL     OW13118   5.136   6.076   2.640
 3704SOL    HW113119   5.160   6.047   2.728
 3704SOL    HW213120   5.220   6.091   2.596
 3705SOL     OW13121   1.044   6.034   4.657
 3705SOL    HW113122   1.078   5.950   4.688
 3705SOL    HW213123   1.098   6.100   4.701
 3706SOL     OW13124   0.948   3.538   0.569
 3706SOL    HW113125   0.891   3.511   0.641
 3706SOL    HW213126   1.029   3.566   0.612
 3707SOL     OW13127   9.881  10.625   8.037
 3707SOL    HW113128   9.924  10.709   8.054
 3707SOL    HW213129   9.881  10.580   8.121
 3708SOL     OW13130   2.980   4.953   8.864
 3708SOL    HW113131   3.051   4.900   8.901
 3708SOL    HW213132   2.990   5.039   8.904
 3709SOL     OW13133   1.812   1.711   1.715
 3709SOL    HW113134   1.728   1.757   1.715
 3709SOL    HW213135   1.844   1.720   1.625
 3710SOL     OW13136   9.299   4.529   9.206
 3710SOL    HW113137   9.233   4.549   9.272
 3710SOL    HW213138   9.261   4.456   9.156
 3711SOL     OW13139   0.066   5.654   6.868
 3711SOL    HW113140   0.090   5.703   6.789
 3711SOL    HW213141   0.149   5.638   6.912
 3712SOL     OW13142   0.801   0.106   7.836
 3712SOL    HW113143   0.888   0.145   7.833
 3712SOL    HW213144   0.816   0.013   7.820
 3713SOL     OW13145   7.032   5.141   6.438
 3713SOL    HW113146   7.125   5.118   6.444
 3713SOL    HW213147   6.987   5.069   6.482
 3714SOL     OW13148   1.796   0.765   3.184
 3714SOL    HW113149   1.813   0.747   3.276
 3714SOL    HW213150   1.877   0.805   3.152
 3715SOL     OW13151   4.821   8.923   6.936
 3715SOL    HW113152   4.731   8.953   6.924
 3715SOL    HW213153   4.874   9.002   6.933
 3716SOL     OW13154   6.953   8.565   9.670
 3716SOL    HW113155   6.949   8.510   9.591
 3716SOL    HW213156   7.028   8.531   9.719
 3717SOL     OW13157   2.610  10.414   5.302
 3717SOL    HW113158   2.617  10.509   5.310
 3717SOL    HW213159   2.673  10.391   5.234
 3718SOL     OW13160   1.614   8.894   4.242
 3718SOL    HW113161   1.545   8.927   4.184
 3718SOL    HW213162   1.599   8.799   4.245
 3719SOL     OW13163   9.526   2.031   7.477
 3719SOL    HW113164   9.600   2.009   7.419
 3719SOL    HW213165   9.529   1.964   7.545
 3720SOL     OW13166   3.863   1.005   7.330
 3720SOL    HW113167   3.878   0.963   7.245
 3720SOL    HW213168   3.915   0.953   7.391
 3721SOL     OW13169   2.798   0.190   1.918
 3721SOL    HW113170   2.755   0.233   1.991
 3721SOL    HW213171   2.889   0.218   1.923
 3722SOL     OW13172   2.442   4.363   0.750
 3722SOL    HW113173   2.351   4.358   0.720
 3722SOL    HW213174   2.464   4.456   0.746
 3723SOL     OW13175   8.967   6.198  10.975
 3723SOL    HW113176   8.989   6.284  10.941
 3723SOL    HW213177   8.883   6.210  11.019
 3724SOL     OW13178   5.820   3.881   7.510
 3724SOL    HW113179   5.762   3.912   7.579
 3724SOL    HW213180   5.904   3.924   7.527
 3725SOL     OW13181   2.420   4.510   2.111
 3725SOL    HW113182   2.408   4.539   2.020
 3725SOL    HW213183   2.389   4.419   2.111
 3726SOL     OW13184   3.310   1.789  10.972
 3726SOL    HW113185   3.311   1.752  11.060
 3726SOL    HW213186   3.402   1.792  10.946
 3727SOL     OW13187   9.254   3.514   3.735
 3727SOL    HW113188   9.310   3.592   3.734
 3727SOL    HW213189   9.305   3.449   3.783
 3728SOL     OW13190   6.331   6.361  10.781
 3728SOL    HW113191   6.368   6.379  10.694
 3728SOL    HW213192   6.250   6.314  10.763
 3729SOL     OW13193   9.555   5.015   2.047
 3729SOL    HW113194   9.494   4.965   2.101
 3729SOL    HW213195   9.629   4.955   2.033
 3730SOL     OW13196   0.002   8.710   5.923
 3730SOL    HW113197  -0.022   8.762   5.846
 3730SOL    HW213198   0.006   8.620   5.891
 3731SOL     OW13199   9.149   5.011   7.718
 3731SOL    HW113200   9.080   4.991   7.655
 3731SOL    HW213201   9.214   4.942   7.705
 3732SOL     OW13202   0.975   0.567   8.403
 3732SOL    HW113203   0.995   0.626   8.330
 3732SOL    HW213204   0.965   0.625   8.478
 3733SOL     OW13205  10.000   3.506   1.531
 3733SOL    HW113206   9.959   3.570   1.588
 3733SOL    HW213207   9.957   3.518   1.446
 3734SOL     OW13208   9.151   3.433   4.257
 3734SOL    HW113209   9.073   3.487   4.242
 3734SOL    HW213210   9.205   3.447   4.179
 3735SOL     OW13211   3.263   9.136   5.530
 3735SOL    HW113212   3.207   9.142   5.607
 3735SOL    HW213213   3.237   9.210   5.475
 3736SOL     OW13214   6.282   7.652   8.826
 3736SOL    HW113215   6.215   7.689   8.769
 3736SOL    HW213216   6.255   7.561   8.839
 3737SOL     OW13217   3.614   4.035   2.848
 3737SOL    HW113218   3.538   4.078   2.885
 3737SOL    HW213219   3.688   4.090   2.872
 3738SOL     OW13220   8.732  10.198   7.046
 3738SOL    HW113221   8.685  10.231   7.122
 3738SOL    HW213222   8.758  10.109   7.070
 3739SOL     OW13223   0.624   4.973   0.950
 3739SOL    HW113224   0.535   4.986   0.982
 3739SOL    HW213225   0.636   5.041   0.883
 3740SOL     OW13226   6.374   1.100   0.606
 3740SOL    HW113227   6.352   1.193   0.602
 3740SOL    HW213228   6.335   1.069   0.688
 3741SOL     OW13229   8.509   5.391   6.903
 3741SOL    HW113230   8.592   5.344   6.904
 3741SOL    HW213231   8.492   5.412   6.995
 3742SOL     OW13232   2.475   2.865   6.992
 3742SOL    HW113233   2.461   2.939   7.050
 3742SOL    HW213234   2.409   2.801   7.019
 3743SOL     OW13235  10.399   6.193   1.822
 3743SOL    HW113236  10.329   6.191   1.756
 3743SOL    HW213237  10.460   6.125   1.793
 3744SOL     OW13238   1.046   9.980   5.239
 3744SOL    HW113239   1.128   9.999   5.193
 3744SOL    HW213240   1.062  10.006   5.329
 3745SOL     OW13241   9.008   5.838   1.688
 3745SOL    HW113242   9.069   5.775   1.726
 3745SOL    HW213243   8.922   5.804   1.711
 3746SOL     OW13244   2.402   6.289   0.217
 3746SOL    HW113245   2.368   6.202   0.237
 3746SOL    HW213246   2.458   6.311   0.291
 3747SOL     OW13247   5.791   7.570   9.990
 3747SOL    HW113248   5.858   7.550  10.055
 3747SOL    HW213249   5.712   7.584  10.041
 3748SOL     OW13250   9.672   4.978   4.650
 3748SOL    HW113251   9.710   4.942   4.569
 3748SOL    HW213252   9.600   5.034   4.620
 3749SOL     OW13253   6.410   1.888   8.437
 3749SOL    HW113254   6.385   1.867   8.347
 3749SOL    HW213255   6.460   1.969   8.430
 3750SOL     OW13256   1.342   0.512   1.227
 3750SOL    HW113257   1.283   0.572   1.181
 3750SOL    HW213258   1.315   0.517   1.318
 3751SOL     OW13259   0.596   6.334   1.417
 3751SOL    HW113260   0.541   6.267   1.457
 3751SOL    HW213261   0.541   6.412   1.415
 3752SOL     OW13262   3.595   3.942   1.197
 3752SOL    HW113263   3.533   3.991   1.250
 3752SOL    HW213264   3.558   3.945   1.108
 3753SOL     OW13265   6.892   0.312  10.868
 3753SOL    HW113266   6.961   0.371  10.898
 3753SOL    HW213267   6.875   0.338  10.777
 3754SOL     OW13268   5.834   1.636   2.623
 3754SOL    HW113269   5.744   1.620   2.594
 3754SOL    HW213270   5.876   1.679   2.548
 3755SOL     OW13271   7.104   1.130   2.486
 3755SOL    HW113272   7.044   1.148   2.414
 3755SOL    HW213273   7.155   1.210   2.496
 3756SOL     OW13274   4.205   1.492   8.022
 3756SOL    HW113275   4.154   1.549   8.079
 3756SOL    HW213276   4.167   1.504   7.935
 3757SOL     OW13277  10.234   4.074   1.613
 3757SOL    HW113278  10.217   4.137   1.683
 3757SOL    HW213279  10.224   4.124   1.532
 3758SOL     OW13280   5.950   5.707   1.060
 3758SOL    HW113281   6.016   5.651   1.101
 3758SOL    HW213282   5.881   5.716   1.125
 3759SOL     OW13283   2.338   5.422  10.821
 3759SOL    HW113284   2.405   5.486  10.797
 3759SOL    HW213285   2.298   5.457  10.900
 3760SOL     OW13286   5.044   9.748   2.092
 3760SOL    HW113287   5.136   9.773   2.098
 3760SOL    HW213288   5.023   9.758   1.999
 3761SOL     OW13289   1.434   4.251   1.011
 3761SOL    HW113290   1.478   4.335   0.998
 3761SOL    HW213291   1.448   4.204   0.929
 3762SOL     OW13292   1.451   4.420   9.446
 3762SOL    HW113293   1.407   4.381   9.521
 3762SOL    HW213294   1.544   4.417   9.468
 3763SOL     OW13295   0.825   4.521   9.952
 3763SOL    HW113296   0.858   4.608   9.972
 3763SOL    HW213297   0.738   4.536   9.915
 3764SOL     OW13298   2.869   3.449   8.677
 3764SOL    HW113299   2.851   3.421   8.587
 3764SOL    HW213300   2.783   3.458   8.717
 3765SOL     OW13301   8.512   3.316   2.448
 3765SOL    HW113302   8.528   3.385   2.383
 3765SOL    HW213303   8.447   3.353   2.507
 3766SOL     OW13304   4.498   2.413   2.654
 3766SOL    HW113305   4.485   2.463   2.734
 3766SOL    HW213306   4.565   2.348   2.676
 3767SOL     OW13307   3.781   9.609   0.168
 3767SOL    HW113308   3.861   9.602   0.116
 3767SOL    HW213309   3.713   9.572   0.112
 3768SOL     OW13310   1.861   1.202   9.475
 3768SOL    HW113311   1.925   1.259   9.518
 3768SOL    HW213312   1.821   1.152   9.546
 3769SOL     OW13313   9.597   7.211   8.713
 3769SOL    HW113314   9.682   7.166   8.709
 3769SOL    HW213315   9.611   7.284   8.773
 3770SOL     OW13316   3.821   0.556   2.166
 3770SOL    HW113317   3.767   0.633   2.180
 3770SOL    HW213318   3.902   0.590   2.128
 3771SOL     OW13319   2.309  10.046   6.059
 3771SOL    HW113320   2.370  10.101   6.108
 3771SOL    HW213321   2.275   9.984   6.123
 3772SOL     OW13322   2.735   7.642   8.277
 3772SOL    HW113323   2.761   7.636   8.185
 3772SOL    HW213324   2.817   7.653   8.324
 3773SOL     OW13325   4.632   0.636   9.767
 3773SOL    HW113326   4.589   0.598   9.843
 3773SOL    HW213327   4.561   0.654   9.705
 3774SOL     OW13328   6.476   8.375   1.368
 3774SOL    HW113329   6.407   8.315   1.395
 3774SOL    HW213330   6.441   8.462   1.385
 3775SOL     OW13331   5.493  10.444   0.907
 3775SOL    HW113332   5.474  10.486   0.823
 3775SOL    HW213333   5.557  10.376   0.886
 3776SOL     OW13334   8.770   8.698   9.476
 3776SOL    HW113335   8.701   8.709   9.411
 3776SOL    HW213336   8.818   8.780   9.475
 3777SOL     OW13337   9.980   3.906   9.977
 3777SOL    HW113338  10.049   3.886  10.040
 3777SOL    HW213339   9.908   3.939  10.030
 3778SOL     OW13340   1.225   3.531   2.312
 3778SOL    HW113341   1.291   3.487   2.258
 3778SOL    HW213342   1.200   3.607   2.260
 3779SOL     OW13343   4.936  10.551   2.266
 3779SOL    HW113344   5.002  10.543   2.334
 3779SOL    HW213345   4.878  10.477   2.280
 3780SOL     OW13346   4.764   4.579   5.160
 3780SOL    HW113347   4.717   4.660   5.177
 3780SOL    HW213348   4.817   4.565   5.238
 3781SOL     OW13349  10.589   2.731   2.045
 3781SOL    HW113350  10.616   2.771   2.127
 3781SOL    HW213351  10.650   2.766   1.980
 3782SOL     OW13352   9.528  10.680   3.666
 3782SOL    HW113353   9.531  10.622   3.742
 3782SOL    HW213354   9.620  10.700   3.648
 3783SOL     OW13355   4.861   3.115   0.949
 3783SOL    HW113356   4.804   3.177   0.904
 3783SOL    HW213357   4.950   3.143   0.926
 3784SOL     OW13358   3.970   1.124   5.985
 3784SOL    HW113359   3.993   1.090   5.898
 3784SOL    HW213360   4.032   1.195   6.000
 3785SOL     OW13361   4.997   4.594   0.560
 3785SOL    HW113362   5.021   4.584   0.652
 3785SOL    HW213363   4.909   4.631   0.562
 3786SOL     OW13364   1.550   2.348   6.592
 3786SOL    HW113365   1.630   2.371   6.545
 3786SOL    HW213366   1.484   2.338   6.523
 3787SOL     OW13367   2.331   2.880   8.395
 3787SOL    HW113368   2.256   2.854   8.449
 3787SOL    HW213369   2.302   2.959   8.349
 3788SOL     OW13370   3.233   9.933   8.146
 3788SOL    HW113371   3.241   9.994   8.219
 3788SOL    HW213372   3.150   9.888   8.161
 3789SOL     OW13373   6.587   4.032  10.121
 3789SOL    HW113374   6.671   4.045  10.077
 3789SOL    HW213375   6.522   4.040  10.051
 3790SOL     OW13376   1.842   4.526  10.350
 3790SOL    HW113377   1.751   4.513  10.376
 3790SOL    HW213378   1.874   4.597  10.405
 3791SOL     OW13379   0.575  10.679   2.545
 3791SOL    HW113380   0.662  10.639   2.540
 3791SOL    HW213381   0.536  10.661   2.459
 3792SOL     OW13382  10.615   7.815   8.024
 3792SOL    HW113383  10.622   7.822   7.928
 3792SOL    HW213384  10.691   7.862   8.057
 3793SOL     OW13385   0.337   2.706  10.157
 3793SOL    HW113386   0.333   2.736  10.066
 3793SOL    HW213387   0.302   2.617  10.154
 3794SOL     OW13388   2.901   5.054   9.496
 3794SOL    HW113389   2.886   4.969   9.537
 3794SOL    HW213390   2.920   5.032   9.404
 3795SOL     OW13391   2.372  10.801   1.898
 3795SOL    HW113392   2.398  10.762   1.814
 3795SOL    HW213393   2.354  10.726   1.954
 3796SOL     OW13394   5.835   2.671   6.562
 3796SOL    HW113395   5.906   2.735   6.552
 3796SOL    HW213396   5.773   2.693   6.492
 3797SOL     OW13397   4.355   7.197   7.798
 3797SOL    HW113398   4.287   7.200   7.730
 3797SOL    HW213399   4.419   7.134   7.764
 3798SOL     OW13400   6.098   6.192  10.698
 3798SOL    HW113401   6.156   6.115  10.695
 3798SOL    HW213402   6.010   6.155  10.700
 3799SOL     OW13403   1.975   5.149   7.089
 3799SOL    HW113404   2.017   5.230   7.116
 3799SOL    HW213405   1.884   5.173   7.072
 3800SOL     OW13406   8.417   2.553   5.425
 3800SOL    HW113407   8.322   2.559   5.414
 3800SOL    HW213408   8.447   2.643   5.427
 3801SOL     OW13409   7.893   9.896   6.210
 3801SOL    HW113410   7.912   9.869   6.120
 3801SOL    HW213411   7.859   9.817   6.252
 3802SOL     OW13412   7.768   0.563   3.735
 3802SOL    HW113413   7.842   0.542   3.677
 3802SOL    HW213414   7.731   0.643   3.698
 3803SOL     OW13415   8.266   5.212   2.463
 3803SOL    HW113416   8.215   5.228   2.383
 3803SOL    HW213417   8.348   5.259   2.449
 3804SOL     OW13418   6.112   3.840   0.342
 3804SOL    HW113419   6.179   3.805   0.400
 3804SOL    HW213420   6.033   3.843   0.395
 3805SOL     OW13421   0.760   9.272   9.971
 3805SOL    HW113422   0.846   9.236   9.992
 3805SOL    HW213423   0.773   9.367   9.972
 3806SOL     OW13424   6.321   2.289   9.334
 3806SOL    HW113425   6.314   2.237   9.414
 3806SOL    HW213426   6.415   2.301   9.321
 3807SOL     OW13427   0.527  10.602   0.880
 3807SOL    HW113428   0.564  10.549   0.951
 3807SOL    HW213429   0.603  10.627   0.827
 3808SOL     OW13430  10.728   6.257   3.775
 3808SOL    HW113431  10.666   6.280   3.706
 3808SOL    HW213432  10.782   6.188   3.737
 3809SOL     OW13433   2.921   2.826   5.485
 3809SOL    HW113434   2.957   2.910   5.456
 3809SOL    HW213435   2.949   2.764   5.417
 3810SOL     OW13436   5.433   2.850   5.014
 3810SOL    HW113437   5.351   2.829   5.058
 3810SOL    HW213438   5.485   2.769   5.021
 3811SOL     OW13439   6.821   7.629   9.891
 3811SOL    HW113440   6.822   7.683   9.970
 3811SOL    HW213441   6.740   7.652   9.846
 3812SOL     OW13442   5.925   2.767   5.400
 3812SOL    HW113443   5.834   2.786   5.421
 3812SOL    HW213444   5.937   2.675   5.425
 3813SOL     OW13445   9.989   0.333   3.586
 3813SOL    HW113446   9.963   0.403   3.646
 3813SOL    HW213447  10.078   0.309   3.614
 3814SOL     OW13448   2.010   2.762   2.973
 3814SOL    HW113449   2.045   2.673   2.970
 3814SOL    HW213450   2.078   2.813   3.016
 3815SOL     OW13451   6.675  10.918   4.459
 3815SOL    HW113452   6.740  10.979   4.494
 3815SOL    HW213453   6.723  10.866   4.394
 3816SOL     OW13454   1.235  11.023   7.424
 3816SOL    HW113455   1.201  11.108   7.396
 3816SOL    HW213456   1.182  10.959   7.376
 3817SOL     OW13457   9.852   7.579   1.659
 3817SOL    HW113458   9.910   7.581   1.583
 3817SOL    HW213459   9.837   7.671   1.680
 3818SOL     OW13460   0.737   4.711   8.497
 3818SOL    HW113461   0.815   4.683   8.449
 3818SOL    HW213462   0.685   4.631   8.506
 3819SOL     OW13463   8.470   6.140   2.481
 3819SOL    HW113464   8.492   6.206   2.416
 3819SOL    HW213465   8.425   6.188   2.550
 3820SOL     OW13466   2.655   1.318   8.544
 3820SOL    HW113467   2.619   1.405   8.558
 3820SOL    HW213468   2.673   1.284   8.632
 3821SOL     OW13469   2.821   5.035   7.819
 3821SOL    HW113470   2.881   5.031   7.893
 3821SOL    HW213471   2.748   5.087   7.850
 3822SOL     OW13472   5.426   9.138   3.688
 3822SOL    HW113473   5.365   9.072   3.721
 3822SOL    HW213474   5.425   9.126   3.593
 3823SOL     OW13475   1.666   1.594   0.352
 3823SOL    HW113476   1.609   1.653   0.401
 3823SOL    HW213477   1.721   1.652   0.298
 3824SOL     OW13478   0.332   4.782  10.720
 3824SOL    HW113479   0.330   4.770  10.625
 3824SOL    HW213480   0.284   4.706  10.755
 3825SOL     OW13481   4.512   0.381  10.609
 3825SOL    HW113482   4.518   0.466  10.652
 3825SOL    HW213483   4.431   0.343  10.642
 3826SOL     OW13484   2.563   5.642   9.957
 3826SOL    HW113485   2.551   5.700   9.882
 3826SOL    HW213486   2.641   5.675  10.001
 3827SOL     OW13487   7.414   5.599   6.976
 3827SOL    HW113488   7.390   5.611   6.884
 3827SOL    HW213489   7.491   5.655   6.988
 3828SOL     OW13490   3.830   4.728   1.596
 3828SOL    HW113491   3.779   4.674   1.536
 3828SOL    HW213492   3.909   4.750   1.547
 3829SOL     OW13493   0.730   6.116   2.902
 3829SOL    HW113494   0.661   6.057   2.931
 3829SOL    HW213495   0.807   6.059   2.892
 3830SOL     OW13496   7.995   9.029  10.255
 3830SOL    HW113497   8.019   8.937  10.246
 3830SOL    HW213498   8.073   9.071  10.291
 3831SOL     OW13499   3.549   1.557   4.929
 3831SOL    HW113500   3.463   1.538   4.965
 3831SOL    HW213501   3.538   1.641   4.884
 3832SOL     OW13502   6.387   0.533   2.429
 3832SOL    HW113503   6.471   0.487   2.431
 3832SOL    HW213504   6.353   0.517   2.340
 3833SOL     OW13505   1.567   2.748   9.652
 3833SOL    HW113506   1.639   2.743   9.715
 3833SOL    HW213507   1.526   2.662   9.656
 3834SOL     OW13508   6.006   2.603  10.052
 3834SOL    HW113509   6.099   2.592  10.032
 3834SOL    HW213510   5.972   2.657   9.980
 3835SOL     OW13511  10.611  10.275   3.730
 3835SOL    HW113512  10.581  10.219   3.801
 3835SOL    HW213513  10.578  10.362   3.752
 3836SOL     OW13514   3.693   3.115   5.681
 3836SOL    HW113515   3.601   3.142   5.682
 3836SOL    HW213516   3.742   3.196   5.669
 3837SOL     OW13517  10.929   5.984   2.559
 3837SOL    HW113518  10.900   6.057   2.613
 3837SOL    HW213519  10.867   5.981   2.486
 3838SOL     OW13520   9.172   6.400   9.456
 3838SOL    HW113521   9.245   6.356   9.412
 3838SOL    HW213522   9.142   6.336   9.521
 3839SOL     OW13523   4.242   9.483   6.805
 3839SOL    HW113524   4.254   9.388   6.799
 3839SOL    HW213525   4.256   9.514   6.715
 3840SOL     OW13526   5.684   2.293   3.225
 3840SOL    HW113527   5.607   2.325   3.178
 3840SOL    HW213528   5.753   2.356   3.204
 3841SOL     OW13529   3.264   4.572   9.444
 3841SOL    HW113530   3.338   4.631   9.428
 3841SOL    HW213531   3.273   4.504   9.377
 3842SOL     OW13532  10.474   2.433   4.479
 3842SOL    HW113533  10.468   2.528   4.469
 3842SOL    HW213534  10.431   2.398   4.401
 3843SOL     OW13535   0.588   6.394   9.459
 3843SOL    HW113536   0.567   6.375   9.550
 3843SOL    HW213537   0.506   6.426   9.421
 3844SOL     OW13538   6.279   7.552   2.401
 3844SOL    HW113539   6.357   7.607   2.396
 3844SOL    HW213540   6.216   7.603   2.451
 3845SOL     OW13541   2.579   5.822   5.919
 3845SOL    HW113542   2.574   5.906   5.874
 3845SOL    HW213543   2.672   5.800   5.919
 3846SOL     OW13544   0.422   8.301   9.253
 3846SOL    HW113545   0.511   8.286   9.285
 3846SOL    HW213546   0.403   8.225   9.198
 3847SOL     OW13547   2.550   5.508   3.856
 3847SOL    HW113548   2.472   5.534   3.905
 3847SOL    HW213549   2.560   5.575   3.788
 3848SOL     OW13550   9.210   2.741   0.440
 3848SOL    HW113551   9.196   2.831   0.413
 3848SOL    HW213552   9.125   2.711   0.471
 3849SOL     OW13553   4.131   6.457   0.982
 3849SOL    HW113554   4.216   6.495   0.959
 3849SOL    HW213555   4.153   6.377   1.030
 3850SOL     OW13556   5.544  10.267   6.783
 3850SOL    HW113557   5.614  10.318   6.743
 3850SOL    HW213558   5.573  10.176   6.774
 3851SOL     OW13559   2.342   8.514  10.551
 3851SOL    HW113560   2.258   8.469  10.561
 3851SOL    HW213561   2.405   8.443  10.538
 3852SOL     OW13562  10.453   5.358   5.738
 3852SOL    HW113563  10.422   5.410   5.811
 3852SOL    HW213564  10.428   5.408   5.660
 3853SOL     OW13565   0.848   7.792   8.899
 3853SOL    HW113566   0.841   7.732   8.824
 3853SOL    HW213567   0.775   7.767   8.956
 3854SOL     OW13568  10.410   7.611   1.406
 3854SOL    HW113569  10.427   7.681   1.469
 3854SOL    HW213570  10.492   7.560   1.403
 3855SOL     OW13571   1.184   3.453   2.685
 3855SOL    HW113572   1.129   3.388   2.729
 3855SOL    HW213573   1.122   3.516   2.649
 3856SOL     OW13574   0.347   0.333   8.284
 3856SOL    HW113575   0.279   0.300   8.343
 3856SOL    HW213576   0.422   0.351   8.341
 3857SOL     OW13577   2.808   3.497   5.786
 3857SOL    HW113578   2.841   3.460   5.868
 3857SOL    HW213579   2.791   3.420   5.730
 3858SOL     OW13580   4.596   6.509   1.093
 3858SOL    HW113581   4.673   6.564   1.083
 3858SOL    HW213582   4.619   6.449   1.164
 3859SOL     OW13583   8.695   4.131   8.866
 3859SOL    HW113584   8.705   4.090   8.780
 3859SOL    HW213585   8.772   4.187   8.875
 3860SOL     OW13586   2.246   6.614   3.810
 3860SOL    HW113587   2.253   6.706   3.833
 3860SOL    HW213588   2.277   6.567   3.887
 3861SOL     OW13589   0.032   7.456   1.013
 3861SOL    HW113590  -0.018   7.504   1.079
 3861SOL    HW213591  -0.028   7.448   0.939
 3862SOL     OW13592   4.198   6.914   2.340
 3862SOL    HW113593   4.112   6.892   2.376
 3862SOL    HW213594   4.259   6.901   2.413
 3863SOL     OW13595   0.572   4.316   1.978
 3863SOL    HW113596   0.622   4.254   2.031
 3863SOL    HW213597   0.540   4.381   2.040
 3864SOL     OW13598   0.979   2.090   2.323
 3864SOL    HW113599   1.037   2.054   2.390
 3864SOL    HW213600   0.891   2.078   2.358
 3865SOL     OW13601   5.565   4.815   1.682
 3865SOL    HW113602   5.543   4.835   1.591
 3865SOL    HW213603   5.652   4.852   1.694
 3866SOL     OW13604   4.337   7.427   7.954
 3866SOL    HW113605   4.242   7.428   7.945
 3866SOL    HW213606   4.363   7.339   7.925
 3867SOL     OW13607   5.670   8.116   1.153
 3867SOL    HW113608   5.605   8.153   1.212
 3867SOL    HW213609   5.721   8.191   1.122
 3868SOL     OW13610   2.890   7.473   3.400
 3868SOL    HW113611   2.894   7.436   3.311
 3868SOL    HW213612   2.972   7.445   3.440
 3869SOL     OW13613   4.321   4.268   8.983
 3869SOL    HW113614   4.317   4.180   9.022
 3869SOL    HW213615   4.335   4.252   8.889
 3870SOL     OW13616   1.166   5.285   2.946
 3870SOL    HW113617   1.072   5.298   2.934
 3870SOL    HW213618   1.173   5.201   2.992
 3871SOL     OW13619  10.501   4.167   0.525
 3871SOL    HW113620  10.578   4.218   0.499
 3871SOL    HW213621  10.497   4.096   0.460
 3872SOL     OW13622   2.952   8.646   9.863
 3872SOL    HW113623   2.988   8.605   9.941
 3872SOL    HW213624   2.932   8.736   9.889
 3873SOL     OW13625   8.564   9.151   3.871
 3873SOL    HW113626   8.534   9.070   3.912
 3873SOL    HW213627   8.657   9.135   3.852
 3874SOL     OW13628   9.360   1.678   8.409
 3874SOL    HW113629   9.372   1.713   8.497
 3874SOL    HW213630   9.338   1.586   8.422
 3875SOL     OW13631   0.697   4.813   9.426
 3875SOL    HW113632   0.762   4.759   9.379
 3875SOL    HW213633   0.749   4.870   9.483
 3876SOL     OW13634   9.240   6.938   4.449
 3876SOL    HW113635   9.230   6.858   4.500
 3876SOL    HW213636   9.279   6.908   4.366
 3877SOL     OW13637   2.020   4.671   9.439
 3877SOL    HW113638   1.985   4.584   9.419
 3877SOL    HW213639   1.942   4.725   9.453
 3878SOL     OW13640   2.744   8.748   1.188
 3878SOL    HW113641   2.766   8.672   1.133
 3878SOL    HW213642   2.771   8.722   1.276
 3879SOL     OW13643   2.815  10.642   9.890
 3879SOL    HW113644   2.804  10.570   9.827
 3879SOL    HW213645   2.852  10.601   9.968
 3880SOL     OW13646   8.587   0.620   2.792
 3880SOL    HW113647   8.550   0.532   2.780
 3880SOL    HW213648   8.662   0.606   2.850
 3881SOL     OW13649   2.230   8.635   1.592
 3881SOL    HW113650   2.171   8.620   1.518
 3881SOL    HW213651   2.304   8.683   1.554
 3882SOL     OW13652   0.362   9.671   4.853
 3882SOL    HW113653   0.379   9.613   4.927
 3882SOL    HW213654   0.447   9.707   4.831
 3883SOL     OW13655   6.281   8.578   2.417
 3883SOL    HW113656   6.225   8.600   2.343
 3883SOL    HW213657   6.361   8.544   2.376
 3884SOL     OW13658   5.758   4.318   4.214
 3884SOL    HW113659   5.734   4.391   4.270
 3884SOL    HW213660   5.718   4.338   4.129
 3885SOL     OW13661   9.212   5.349   7.499
 3885SOL    HW113662   9.233   5.275   7.556
 3885SOL    HW213663   9.182   5.308   7.418
 3886SOL     OW13664   9.792   5.828   9.811
 3886SOL    HW113665   9.778   5.758   9.875
 3886SOL    HW213666   9.887   5.829   9.797
 3887SOL     OW13667  10.659   9.251   5.923
 3887SOL    HW113668  10.751   9.276   5.926
 3887SOL    HW213669  10.625   9.272   6.010
 3888SOL     OW13670   0.567   4.086   8.930
 3888SOL    HW113671   0.659   4.106   8.948
 3888SOL    HW213672   0.519   4.121   9.004
 3889SOL     OW13673   8.837   8.411   8.164
 3889SOL    HW113674   8.927   8.442   8.178
 3889SOL    HW213675   8.845   8.346   8.094
 3890SOL     OW13676   2.636   3.506   8.814
 3890SOL    HW113677   2.658   3.555   8.893
 3890SOL    HW213678   2.550   3.539   8.788
 3891SOL     OW13679   7.826   7.197   3.428
 3891SOL    HW113680   7.750   7.247   3.398
 3891SOL    HW213681   7.884   7.194   3.352
 3892SOL     OW13682   0.417   1.042   0.826
 3892SOL    HW113683   0.322   1.055   0.828
 3892SOL    HW213684   0.432   0.967   0.884
 3893SOL     OW13685   9.900  10.996   7.137
 3893SOL    HW113686   9.901  11.087   7.167
 3893SOL    HW213687   9.810  10.968   7.151
 3894SOL     OW13688   0.652   6.381   5.225
 3894SOL    HW113689   0.628   6.347   5.138
 3894SOL    HW213690   0.676   6.303   5.275
 3895SOL     OW13691   0.490  10.220   6.286
 3895SOL    HW113692   0.404  10.191   6.316
 3895SOL    HW213693   0.551  10.154   6.320
 3896SOL     OW13694   8.966   8.597   6.724
 3896SOL    HW113695   8.879   8.613   6.687
 3896SOL    HW213696   8.997   8.517   6.680
 3897SOL     OW13697   7.612   5.577   8.888
 3897SOL    HW113698   7.603   5.558   8.981
 3897SOL    HW213699   7.700   5.614   8.879
 3898SOL     OW13700   1.912   0.814   6.745
 3898SOL    HW113701   1.851   0.743   6.765
 3898SOL    HW213702   1.886   0.886   6.802
 3899SOL     OW13703   2.649   8.654  10.047
 3899SOL    HW113704   2.656   8.592   9.973
 3899SOL    HW213705   2.663   8.600  10.125
 3900SOL     OW13706  10.420   6.864   3.975
 3900SOL    HW113707  10.489   6.804   3.945
 3900SOL    HW213708  10.339   6.821   3.947
 3901SOL     OW13709   3.632   8.012   1.019
 3901SOL    HW113710   3.550   7.963   1.010
 3901SOL    HW213711   3.634   8.069   0.942
 3902SOL     OW13712   3.718   5.181  10.516
 3902SOL    HW113713   3.805   5.186  10.477
 3902SOL    HW213714   3.716   5.251  10.580
 3903SOL     OW13715   7.008   5.982   0.025
 3903SOL    HW113716   7.006   5.950  -0.065
 3903SOL    HW213717   6.916   5.987   0.051
 3904SOL     OW13718   2.571   4.435   4.680
 3904SOL    HW113719   2.633   4.369   4.648
 3904SOL    HW213720   2.542   4.481   4.601
 3905SOL     OW13721   1.407   5.514   0.025
 3905SOL    HW113722   1.313   5.514   0.041
 3905SOL    HW213723   1.439   5.592   0.070
 3906SOL     OW13724   1.764  10.969   0.046
 3906SOL    HW113725   1.687  10.915   0.029
 3906SOL    HW213726   1.808  10.925   0.119
 3907SOL     OW13727   1.107   6.780  10.319
 3907SOL    HW113728   1.200   6.757  10.310
 3907SOL    HW213729   1.089   6.833  10.241
 3908SOL     OW13730   6.311   6.690   6.090
 3908SOL    HW113731   6.342   6.698   6.000
 3908SOL    HW213732   6.389   6.702   6.143
 3909SOL     OW13733   3.877   7.907   0.903
 3909SOL    HW113734   3.808   7.942   0.958
 3909SOL    HW213735   3.893   7.819   0.937
 3910SOL     OW13736   3.936   0.884   2.485
 3910SOL    HW113737   4.018   0.932   2.495
 3910SOL    HW213738   3.875   0.926   2.545
 3911SOL     OW13739   9.508   9.817   6.868
 3911SOL    HW113740   9.580   9.860   6.822
 3911SOL    HW213741   9.532   9.724   6.868
 3912SOL     OW13742   6.085   2.574   7.589
 3912SOL    HW113743   6.077   2.592   7.682
 3912SOL    HW213744   6.035   2.493   7.576
 3913SOL     OW13745   0.598   6.954   2.017
 3913SOL    HW113746   0.607   7.042   2.052
 3913SOL    HW213747   0.531   6.961   1.949
 3914SOL     OW13748   8.857  11.024  10.084
 3914SOL    HW113749   8.913  11.086  10.038
 3914SOL    HW213750   8.769  11.059  10.072
 3915SOL     OW13751   8.488   8.602   5.326
 3915SOL    HW113752   8.398   8.581   5.349
 3915SOL    HW213753   8.488   8.606   5.230
 3916SOL     OW13754   4.197   2.218   0.520
 3916SOL    HW113755   4.232   2.284   0.460
 3916SOL    HW213756   4.144   2.267   0.582
 3917SOL     OW13757   5.794   9.862   8.252
 3917SOL    HW113758   5.821   9.775   8.281
 3917SOL    HW213759   5.735   9.845   8.178
 3918SOL     OW13760   7.145   7.805   6.189
 3918SOL    HW113761   7.087   7.738   6.225
 3918SOL    HW213762   7.163   7.776   6.099
 3919SOL     OW13763   8.435   3.110   6.119
 3919SOL    HW113764   8.462   3.021   6.096
 3919SOL    HW213765   8.426   3.155   6.035
 3920SOL     OW13766   5.896   5.417   3.512
 3920SOL    HW113767   5.850   5.342   3.473
 3920SOL    HW213768   5.850   5.434   3.594
 3921SOL     OW13769  10.369   0.594   2.158
 3921SOL    HW113770  10.276   0.593   2.182
 3921SOL    HW213771  10.383   0.510   2.113
 3922SOL     OW13772   0.711  10.809   6.202
 3922SOL    HW113773   0.794  10.795   6.247
 3922SOL    HW213774   0.645  10.777   6.263
 3923SOL     OW13775   3.743   3.498   6.653
 3923SOL    HW113776   3.786   3.575   6.690
 3923SOL    HW213777   3.663   3.488   6.704
 3924SOL     OW13778   6.159   3.416   8.156
 3924SOL    HW113779   6.198   3.353   8.095
 3924SOL    HW213780   6.175   3.379   8.243
 3925SOL     OW13781   9.639   4.092  10.312
 3925SOL    HW113782   9.653   4.165  10.372
 3925SOL    HW213783   9.588   4.029  10.363
 3926SOL     OW13784   1.040   0.927   3.092
 3926SOL    HW113785   1.075   0.885   3.170
 3926SOL    HW213786   1.116   0.966   3.049
 3927SOL     OW13787   6.780   5.857   4.881
 3927SOL    HW113788   6.837   5.783   4.858
 3927SOL    HW213789   6.783   5.861   4.976
 3928SOL     OW13790   2.180   7.523   0.406
 3928SOL    HW113791   2.147   7.549   0.492
 3928SOL    HW213792   2.105   7.533   0.347
 3929SOL     OW13793   2.442  10.615  10.380
 3929SOL    HW113794   2.433  10.533  10.429
 3929SOL    HW213795   2.374  10.672  10.415
 3930SOL     OW13796   9.918   7.498   0.198
 3930SOL    HW113797   9.994   7.440   0.187
 3930SOL    HW213798   9.955   7.586   0.199
 3931SOL     OW13799   8.742   4.564   6.951
 3931SOL    HW113800   8.672   4.539   6.890
 3931SOL    HW213801   8.788   4.482   6.969
 3932SOL     OW13802   1.642   7.670  10.354
 3932SOL    HW113803   1.604   7.582  10.344
 3932SOL    HW213804   1.718   7.657  10.411
 3933SOL     OW13805   9.429   6.591   9.344
 3933SOL    HW113806   9.336   6.595   9.320
 3933SOL    HW213807   9.442   6.663   9.406
 3934SOL     OW13808   1.916   5.428  10.965
 3934SOL    HW113809   1.872   5.344  10.949
 3934SOL    HW213810   1.869   5.466  11.039
 3935SOL     OW13811   9.982   3.305   3.164
 3935SOL    HW113812  10.072   3.271   3.163
 3935SOL    HW213813   9.979   3.368   3.092
 3936SOL     OW13814   5.829   5.257   8.458
 3936SOL    HW113815   5.790   5.335   8.419
 3936SOL    HW213816   5.889   5.291   8.524
 3937SOL     OW13817   7.999   9.870   7.265
 3937SOL    HW113818   8.005   9.896   7.356
 3937SOL    HW213819   7.908   9.887   7.241
 3938SOL     OW13820   2.549   0.956   3.025
 3938SOL    HW113821   2.577   0.966   3.116
 3938SOL    HW213822   2.495   0.877   3.025
 3939SOL     OW13823   2.148   8.432   1.002
 3939SOL    HW113824   2.175   8.345   1.031
 3939SOL    HW213825   2.194   8.492   1.061
 3940SOL     OW13826   5.460   4.558   9.536
 3940SOL    HW113827   5.521   4.510   9.592
 3940SOL    HW213828   5.424   4.627   9.592
 3941SOL     OW13829   3.099  -0.000   4.694
 3941SOL    HW113830   3.099   0.085   4.651
 3941SOL    HW213831   3.007  -0.018   4.711
 3942SOL     OW13832  10.523   9.061   2.607
 3942SOL    HW113833  10.553   8.973   2.630
 3942SOL    HW213834  10.489   9.097   2.688
 3943SOL     OW13835   0.386   2.365   2.820
 3943SOL    HW113836   0.418   2.446   2.859
 3943SOL    HW213837   0.406   2.297   2.885
 3944SOL     OW13838   2.893   1.638   9.327
 3944SOL    HW113839   2.826   1.700   9.298
 3944SOL    HW213840   2.892   1.645   9.422
 3945SOL     OW13841   3.398   3.335   6.409
 3945SOL    HW113842   3.426   3.426   6.419
 3945SOL    HW213843   3.454   3.285   6.469
 3946SOL     OW13844   5.212   0.855  10.990
 3946SOL    HW113845   5.204   0.897  10.904
 3946SOL    HW213846   5.243   0.924  11.048
 3947SOL     OW13847   0.249   1.646   3.332
 3947SOL    HW113848   0.340   1.643   3.361
 3947SOL    HW213849   0.216   1.729   3.365
 3948SOL     OW13850  10.063   7.843   7.917
 3948SOL    HW113851  10.008   7.919   7.902
 3948SOL    HW213852  10.010   7.769   7.888
 3949SOL     OW13853   2.060   0.169   9.214
 3949SOL    HW113854   2.148   0.182   9.250
 3949SOL    HW213855   2.006   0.147   9.290
 3950SOL     OW13856   1.129   7.685   6.845
 3950SOL    HW113857   1.202   7.656   6.900
 3950SOL    HW213858   1.104   7.606   6.796
 3951SOL     OW13859   0.952   5.389   9.448
 3951SOL    HW113860   0.957   5.483   9.429
 3951SOL    HW213861   0.983   5.347   9.367
 3952SOL     OW13862   4.710   5.838   9.257
 3952SOL    HW113863   4.730   5.878   9.341
 3952SOL    HW213864   4.695   5.912   9.198
 3953SOL     OW13865   2.011   5.069   5.159
 3953SOL    HW113866   2.071   5.136   5.191
 3953SOL    HW213867   2.028   4.993   5.215
 3954SOL     OW13868   9.691  10.344   4.123
 3954SOL    HW113869   9.733  10.294   4.193
 3954SOL    HW213870   9.715  10.296   4.043
 3955SOL     OW13871  10.234   5.827   3.572
 3955SOL    HW113872  10.290   5.760   3.531
 3955SOL    HW213873  10.270   5.910   3.542
 3956SOL     OW13874   3.229   6.210   1.501
 3956SOL    HW113875   3.193   6.273   1.438
 3956SOL    HW213876   3.161   6.201   1.568
 3957SOL     OW13877   0.594   5.673   5.837
 3957SOL    HW113878   0.508   5.692   5.799
 3957SOL    HW213879   0.620   5.590   5.796
 3958SOL     OW13880  10.323   2.640   0.325
 3958SOL    HW113881  10.232   2.664   0.342
 3958SOL    HW213882  10.326   2.546   0.343
 3959SOL     OW13883   4.835   6.038   3.378
 3959SOL    HW113884   4.801   6.070   3.461
 3959SOL    HW213885   4.760   6.041   3.319
 3960SOL     OW13886   3.594   8.912   4.193
 3960SOL    HW113887   3.511   8.938   4.154
 3960SOL    HW213888   3.616   8.983   4.253
 3961SOL     OW13889   3.041   7.813   8.362
 3961SOL    HW113890   3.074   7.790   8.449
 3961SOL    HW213891   3.060   7.736   8.308
 3962SOL     OW13892   1.025   3.530  10.590
 3962SOL    HW113893   0.970   3.603  10.564
 3962SOL    HW213894   1.031   3.475  10.511
 3963SOL     OW13895   8.957   2.510   9.668
 3963SOL    HW113896   8.951   2.605   9.662
 3963SOL    HW213897   9.038   2.494   9.716
 3964SOL     OW13898   7.705   7.853   6.815
 3964SOL    HW113899   7.632   7.804   6.853
 3964SOL    HW213900   7.782   7.798   6.831
 3965SOL     OW13901   9.838   5.085   3.274
 3965SOL    HW113902   9.847   5.180   3.268
 3965SOL    HW213903   9.912   5.051   3.223
 3966SOL     OW13904   2.069   8.341  10.279
 3966SOL    HW113905   2.010   8.300  10.215
 3966SOL    HW213906   2.083   8.273  10.345
 3967SOL     OW13907   0.717   7.657  10.606
 3967SOL    HW113908   0.727   7.591  10.537
 3967SOL    HW213909   0.644   7.625  10.659
 3968SOL     OW13910   5.282   5.363   3.084
 3968SOL    HW113911   5.339   5.358   3.007
 3968SOL    HW213912   5.320   5.432   3.138
 3969SOL     OW13913  10.779   9.606   2.779
 3969SOL    HW113914  10.794   9.565   2.864
 3969SOL    HW213915  10.816   9.694   2.787
 3970SOL     OW13916   9.420   6.136  10.094
 3970SOL    HW113917   9.457   6.062  10.142
 3970SOL    HW213918   9.327   6.116  10.088
 3971SOL     OW13919  10.750   1.244   8.358
 3971SOL    HW113920  10.839   1.265   8.388
 3971SOL    HW213921  10.760   1.162   8.310
 3972SOL     OW13922  10.766   2.790   5.305
 3972SOL    HW113923  10.733   2.702   5.326
 3972SOL    HW213924  10.805   2.780   5.218
 3973SOL     OW13925   1.073   3.846   9.294
 3973SOL    HW113926   1.056   3.753   9.279
 3973SOL    HW213927   1.156   3.847   9.342
 3974SOL     OW13928  10.838   5.372   9.980
 3974SOL    HW113929  10.921   5.361   9.934
 3974SOL    HW213930  10.772   5.342   9.917
 3975SOL     OW13931   8.499   5.611   9.247
 3975SOL    HW113932   8.451   5.583   9.325
 3975SOL    HW213933   8.565   5.672   9.280
 3976SOL     OW13934   2.111  10.692   3.794
 3976SOL    HW113935   2.187  10.710   3.738
 3976SOL    HW213936   2.069  10.777   3.805
 3977SOL     OW13937   7.281   3.771   9.554
 3977SOL    HW113938   7.262   3.681   9.582
 3977SOL    HW213939   7.272   3.824   9.633
 3978SOL     OW13940  10.865   3.876   1.634
 3978SOL    HW113941  10.775   3.894   1.661
 3978SOL    HW213942  10.913   3.956   1.653
 3979SOL     OW13943   3.596   3.993   5.404
 3979SOL    HW113944   3.559   4.031   5.324
 3979SOL    HW213945   3.602   3.899   5.385
 3980SOL     OW13946   6.395   8.679   9.799
 3980SOL    HW113947   6.447   8.711   9.725
 3980SOL    HW213948   6.306   8.674   9.764
 3981SOL     OW13949   1.025   0.181   2.174
 3981SOL    HW113950   1.087   0.249   2.199
 3981SOL    HW213951   0.998   0.141   2.257
 3982SOL     OW13952   2.871   3.519   0.373
 3982SOL    HW113953   2.792   3.568   0.350
 3982SOL    HW213954   2.943   3.577   0.351
 3983SOL     OW13955  10.788  10.247   1.486
 3983SOL    HW113956  10.793  10.298   1.405
 3983SOL    HW213957  10.699  10.260   1.517
 3984SOL     OW13958   4.180   8.984   2.280
 3984SOL    HW113959   4.233   9.035   2.219
 3984SOL    HW213960   4.095   9.027   2.279
 3985SOL     OW13961   9.006   4.422   1.626
 3985SOL    HW113962   8.968   4.340   1.659
 3985SOL    HW213963   9.059   4.395   1.551
 3986SOL     OW13964   9.097   2.030   2.975
 3986SOL    HW113965   9.136   2.072   3.051
 3986SOL    HW213966   9.022   1.982   3.010
 3987SOL     OW13967   1.579   2.963   3.678
 3987SOL    HW113968   1.674   2.972   3.674
 3987SOL    HW213969   1.547   3.053   3.685
 3988SOL     OW13970   0.603   2.886   1.332
 3988SOL    HW113971   0.529   2.946   1.328
 3988SOL    HW213972   0.678   2.940   1.356
 3989SOL     OW13973   6.982   3.777   7.146
 3989SOL    HW113974   6.890   3.752   7.140
 3989SOL    HW213975   7.005   3.804   7.057
 3990SOL     OW13976  10.167   5.433   4.828
 3990SOL    HW113977  10.221   5.495   4.876
 3990SOL    HW213978  10.131   5.483   4.755
 3991SOL     OW13979   4.454   5.921  10.787
 3991SOL    HW113980   4.415   6.006  10.768
 3991SOL    HW213981   4.542   5.941  10.818
 3992SOL     OW13982   4.692   8.543   7.848
 3992SOL    HW113983   4.602   8.557   7.877
 3992SOL    HW213984   4.693   8.452   7.817
 3993SOL     OW13985   2.233   7.539  10.195
 3993SOL    HW113986   2.227   7.634  10.194
 3993SOL    HW213987   2.181   7.512  10.270
 3994SOL     OW13988   2.897   3.466   6.110
 3994SOL    HW113989   2.830   3.416   6.157
 3994SOL    HW213990   2.961   3.400   6.083
 3995SOL     OW13991   9.163   6.226   9.080
 3995SOL    HW113992   9.152   6.320   9.071
 3995SOL    HW213993   9.230   6.203   9.014
 3996SOL     OW13994   4.665   8.836   9.890
 3996SOL    HW113995   4.670   8.762   9.951
 3996SOL    HW213996   4.702   8.910   9.938
 3997SOL     OW13997   9.212   7.878   5.305
 3997SOL    HW113998   9.162   7.850   5.228
 3997SOL    HW213999   9.286   7.927   5.268
 3998SOL     OW14000   2.835   3.455   0.826
 3998SOL    HW114001   2.814   3.510   0.750
 3998SOL    HW214002   2.911   3.497   0.866
 3999SOL     OW14003   9.912   2.835   1.404
 3999SOL    HW114004   9.950   2.757   1.364
 3999SOL    HW214005   9.987   2.880   1.442
 4000SOL     OW14006   7.118   0.102   4.097
 4000SOL    HW114007   7.213   0.108   4.091
 4000SOL    HW214008   7.086   0.161   4.029
 4001SOL     OW14009   1.140   3.577   5.417
 4001SOL    HW114010   1.074   3.513   5.444
 4001SOL    HW214011   1.180   3.538   5.339
 4002SOL     OW14012   9.143   4.156  10.431
 4002SOL    HW114013   9.055   4.156  10.468
 4002SOL    HW214014   9.201   4.135  10.504
 4003SOL     OW14015   9.353   1.382   4.844
 4003SOL    HW114016   9.425   1.389   4.781
 4003SOL    HW214017   9.382   1.315   4.906
 4004SOL     OW14018   0.630   8.624  10.573
 4004SOL    HW114019   0.721   8.601  10.553
 4004SOL    HW214020   0.591   8.640  10.487
 4005SOL     OW14021   2.143   9.103   5.264
 4005SOL    HW114022   2.145   9.039   5.335
 4005SOL    HW214023   2.058   9.146   5.272
 4006SOL     OW14024   1.251   4.624   3.432
 4006SOL    HW114025   1.213   4.662   3.353
 4006SOL    HW214026   1.261   4.531   3.411
 4007SOL     OW14027   7.713   1.682  10.252
 4007SOL    HW114028   7.746   1.643  10.171
 4007SOL    HW214029   7.688   1.771  10.227
 4008SOL     OW14030  10.595   7.913   1.834
 4008SOL    HW114031  10.649   7.922   1.912
 4008SOL    HW214032  10.542   7.992   1.832
 4009SOL     OW14033   7.100   0.200   7.281
 4009SOL    HW114034   7.015   0.203   7.237
 4009SOL    HW214035   7.091   0.261   7.354
 4010SOL     OW14036   8.461   4.419   9.134
 4010SOL    HW114037   8.541   4.453   9.174
 4010SOL    HW214038   8.406   4.393   9.208
 4011SOL     OW14039   0.531   6.292   5.481
 4011SOL    HW114040   0.593   6.248   5.422
 4011SOL    HW214041   0.530   6.238   5.560
 4012SOL     OW14042   3.375   9.265   3.762
 4012SOL    HW114043   3.303   9.264   3.699
 4012SOL    HW214044   3.366   9.182   3.809
 4013SOL     OW14045   0.282   7.125   2.271
 4013SOL    HW114046   0.326   7.209   2.281
 4013SOL    HW214047   0.337   7.063   2.318
 4014SOL     OW14048   6.397   1.431   4.408
 4014SOL    HW114049   6.483   1.448   4.446
 4014SOL    HW214050   6.413   1.427   4.313
 4015SOL     OW14051   9.619   5.297   0.162
 4015SOL    HW114052   9.650   5.271   0.249
 4015SOL    HW214053   9.577   5.381   0.176
 4016SOL     OW14054   3.991   9.753   0.866
 4016SOL    HW114055   3.963   9.842   0.846
 4016SOL    HW214056   4.047   9.728   0.792
 4017SOL     OW14057   8.416   4.022   6.208
 4017SOL    HW114058   8.363   3.994   6.283
 4017SOL    HW214059   8.400   4.116   6.200
 4018SOL     OW14060  10.293   7.675   2.608
 4018SOL    HW114061  10.334   7.738   2.667
 4018SOL    HW214062  10.220   7.639   2.658
 4019SOL     OW14063   1.366   7.981   7.061
 4019SOL    HW114064   1.338   7.980   6.969
 4019SOL    HW214065   1.284   7.982   7.111
 4020SOL     OW14066   5.997   7.283   6.395
 4020SOL    HW114067   6.078   7.256   6.439
 4020SOL    HW214068   5.952   7.339   6.458
 4021SOL     OW14069   8.738   8.082   4.848
 4021SOL    HW114070   8.766   8.083   4.756
 4021SOL    HW214071   8.664   8.021   4.850
 4022SOL     OW14072   7.904   0.946   7.323
 4022SOL    HW114073   7.967   0.874   7.315
 4022SOL    HW214074   7.933   1.010   7.257
 4023SOL     OW14075   4.780   4.363   2.580
 4023SOL    HW114076   4.815   4.310   2.651
 4023SOL    HW214077   4.695   4.323   2.560
 4024SOL     OW14078   5.233   6.123   0.055
 4024SOL    HW114079   5.251   6.051   0.117
 4024SOL    HW214080   5.320   6.150   0.024
 4025SOL     OW14081  10.653   6.543   4.266
 4025SOL    HW114082  10.730   6.599   4.278
 4025SOL    HW214083  10.676   6.486   4.192
 4026SOL     OW14084   0.311   2.823   4.324
 4026SOL    HW114085   0.367   2.869   4.262
 4026SOL    HW214086   0.257   2.766   4.269
 4027SOL     OW14087   5.549   7.819   1.655
 4027SOL    HW114088   5.508   7.744   1.611
 4027SOL    HW214089   5.485   7.846   1.721
 4028SOL     OW14090   5.820   8.180   2.867
 4028SOL    HW114091   5.799   8.122   2.793
 4028SOL    HW214092   5.874   8.126   2.925
 4029SOL     OW14093   6.529   5.361   2.823
 4029SOL    HW114094   6.540   5.387   2.914
 4029SOL    HW214095   6.597   5.294   2.808
 4030SOL     OW14096   9.646   6.387   3.188
 4030SOL    HW114097   9.613   6.302   3.217
 4030SOL    HW214098   9.593   6.408   3.111
 4031SOL     OW14099   2.084   6.173  10.990
 4031SOL    HW114100   2.141   6.166  10.913
 4031SOL    HW214101   2.109   6.099  11.045
 4032SOL     OW14102   1.799   6.144   0.324
 4032SOL    HW114103   1.812   6.176   0.234
 4032SOL    HW214104   1.760   6.218   0.370
 4033SOL     OW14105   3.756   8.621   8.830
 4033SOL    HW114106   3.671   8.584   8.855
 4033SOL    HW214107   3.759   8.610   8.735
 4034SOL     OW14108   0.328   4.712   1.213
 4034SOL    HW114109   0.336   4.755   1.128
 4034SOL    HW214110   0.413   4.670   1.227
 4035SOL     OW14111   8.713   6.050   2.567
 4035SOL    HW114112   8.682   5.972   2.614
 4035SOL    HW214113   8.636   6.082   2.521
 4036SOL     OW14114   0.584   4.346  10.517
 4036SOL    HW114115   0.531   4.343  10.596
 4036SOL    HW214116   0.674   4.334  10.547
 4037SOL     OW14117   5.764  10.562   0.012
 4037SOL    HW114118   5.696  10.609   0.061
 4037SOL    HW214119   5.771  10.610  -0.070
 4038SOL     OW14120   0.908   9.481   4.060
 4038SOL    HW114121   0.816   9.460   4.076
 4038SOL    HW214122   0.924   9.560   4.111
 4039SOL     OW14123  10.247   9.551   5.534
 4039SOL    HW114124  10.266   9.457   5.533
 4039SOL    HW214125  10.262   9.579   5.443
 4040SOL     OW14126   1.683   8.078   3.078
 4040SOL    HW114127   1.650   8.137   3.010
 4040SOL    HW214128   1.768   8.049   3.045
 4041SOL     OW14129   6.493   6.493   8.409
 4041SOL    HW114130   6.421   6.447   8.366
 4041SOL    HW214131   6.458   6.579   8.429
 4042SOL     OW14132   0.519   5.018   0.100
 4042SOL    HW114133   0.506   5.064   0.018
 4042SOL    HW214134   0.492   5.080   0.167
 4043SOL     OW14135   6.951   4.898   0.253
 4043SOL    HW114136   6.865   4.888   0.294
 4043SOL    HW214137   6.932   4.927   0.164
 4044SOL     OW14138   8.761   8.182   7.344
 4044SOL    HW114139   8.759   8.091   7.376
 4044SOL    HW214140   8.673   8.215   7.360
 4045SOL     OW14141   4.021   4.239   3.972
 4045SOL    HW114142   3.996   4.325   3.938
 4045SOL    HW214143   4.090   4.257   4.035
 4046SOL     OW14144   2.035   8.604  10.133
 4046SOL    HW114145   1.945   8.579  10.152
 4046SOL    HW214146   2.083   8.521  10.133
 4047SOL     OW14147  10.080   7.167   7.010
 4047SOL    HW114148  10.097   7.183   7.103
 4047SOL    HW214149   9.993   7.127   7.008
 4048SOL     OW14150   6.810   6.607   9.070
 4048SOL    HW114151   6.739   6.543   9.070
 4048SOL    HW214152   6.777   6.679   9.122
 4049SOL     OW14153   0.543   5.584   3.054
 4049SOL    HW114154   0.584   5.499   3.073
 4049SOL    HW214155   0.535   5.586   2.958
 4050SOL     OW14156   5.225   8.296   5.873
 4050SOL    HW114157   5.157   8.351   5.912
 4050SOL    HW214158   5.199   8.288   5.781
 4051SOL     OW14159   5.812   4.371  10.868
 4051SOL    HW114160   5.724   4.339  10.849
 4051SOL    HW214161   5.870   4.310  10.821
 4052SOL     OW14162  10.813   2.316   3.958
 4052SOL    HW114163  10.858   2.400   3.968
 4052SOL    HW214164  10.794   2.287   4.047
 4053SOL     OW14165  10.168   4.986   3.571
 4053SOL    HW114166  10.187   4.942   3.654
 4053SOL    HW214167  10.233   5.056   3.566
 4054SOL     OW14168   3.523   9.758   7.362
 4054SOL    HW114169   3.512   9.670   7.399
 4054SOL    HW214170   3.463   9.813   7.412
 4055SOL     OW14171  10.943   6.055   3.744
 4055SOL    HW114172  10.879   5.985   3.758
 4055SOL    HW214173  10.986   6.066   3.828
 4056SOL     OW14174   1.719   2.907   7.036
 4056SOL    HW114175   1.652   2.877   6.974
 4056SOL    HW214176   1.745   2.993   7.003
 4057SOL     OW14177   1.513   8.761   2.666
 4057SOL    HW114178   1.492   8.850   2.693
 4057SOL    HW214179   1.609   8.759   2.663
 4058SOL     OW14180  10.510   8.227  11.098
 4058SOL    HW114181  10.527   8.213  11.191
 4058SOL    HW214182  10.597   8.239  11.059
 4059SOL     OW14183   2.286   6.770   1.728
 4059SOL    HW114184   2.235   6.709   1.781
 4059SOL    HW214185   2.246   6.765   1.641
 4060SOL     OW14186   3.957   6.809   4.804
 4060SOL    HW114187   3.954   6.796   4.898
 4060SOL    HW214188   4.031   6.868   4.790
 4061SOL     OW14189   3.111   6.344   8.958
 4061SOL    HW114190   3.079   6.378   9.041
 4061SOL    HW214191   3.110   6.419   8.898
 4062SOL     OW14192   3.980   7.577   8.707
 4062SOL    HW114193   4.024   7.610   8.628
 4062SOL    HW214194   3.931   7.500   8.677
 4063SOL     OW14195   4.250   8.622   3.018
 4063SOL    HW114196   4.223   8.560   2.949
 4063SOL    HW214197   4.345   8.610   3.024
 4064SOL     OW14198   5.980   3.810  10.183
 4064SOL    HW114199   5.996   3.847  10.269
 4064SOL    HW214200   6.030   3.728  10.183
 4065SOL     OW14201   3.640   5.466  10.350
 4065SOL    HW114202   3.687   5.393  10.309
 4065SOL    HW214203   3.555   5.466  10.306
 4066SOL     OW14204   4.911   6.049  10.884
 4066SOL    HW114205   4.921   6.063  10.789
 4066SOL    HW214206   4.894   5.955  10.892
 4067SOL     OW14207   1.220   6.442   4.349
 4067SOL    HW114208   1.158   6.431   4.421
 4067SOL    HW214209   1.168   6.478   4.277
 4068SOL     OW14210   2.485   6.460   2.910
 4068SOL    HW114211   2.553   6.483   2.846
 4068SOL    HW214212   2.408   6.439   2.856
 4069SOL     OW14213   2.094  10.060  10.683
 4069SOL    HW114214   2.163  10.043  10.619
 4069SOL    HW214215   2.095  10.155  10.695
 4070SOL     OW14216   8.000   2.174   0.418
 4070SOL    HW114217   7.999   2.173   0.322
 4070SOL    HW214218   8.078   2.224   0.441
 4071SOL     OW14219   7.165   2.435   1.438
 4071SOL    HW114220   7.179   2.408   1.528
 4071SOL    HW214221   7.140   2.527   1.444
 4072SOL     OW14222   7.535   3.501   1.976
 4072SOL    HW114223   7.557   3.593   1.967
 4072SOL    HW214224   7.472   3.497   2.048
 4073SOL     OW14225  10.828   7.007  11.002
 4073SOL    HW114226  10.819   6.972  10.913
 4073SOL    HW214227  10.811   6.932  11.059
 4074SOL     OW14228   6.821   9.400  10.479
 4074SOL    HW114229   6.917   9.398  10.483
 4074SOL    HW214230   6.793   9.373  10.566
 4075SOL     OW14231   3.543   8.133   0.761
 4075SOL    HW114232   3.616   8.095   0.712
 4075SOL    HW214233   3.560   8.227   0.760
 4076SOL     OW14234  10.823   4.042   9.033
 4076SOL    HW114235  10.806   4.025   8.940
 4076SOL    HW214236  10.768   4.117   9.054
 4077SOL     OW14237   7.770   9.502   8.453
 4077SOL    HW114238   7.780   9.502   8.357
 4077SOL    HW214239   7.860   9.510   8.486
 4078SOL     OW14240   1.359  10.218   2.672
 4078SOL    HW114241   1.307  10.253   2.600
 4078SOL    HW214242   1.298  10.213   2.745
 4079SOL     OW14243  10.383   4.073   3.849
 4079SOL    HW114244  10.413   4.026   3.926
 4079SOL    HW214245  10.335   4.148   3.883
 4080SOL     OW14246   1.897   3.995   9.363
 4080SOL    HW114247   1.855   4.041   9.290
 4080SOL    HW214248   1.824   3.958   9.413
 4081SOL     OW14249   1.698   4.899   3.607
 4081SOL    HW114250   1.760   4.875   3.537
 4081SOL    HW214251   1.652   4.976   3.573
 4082SOL     OW14252  10.724   8.000   7.215
 4082SOL    HW114253  10.797   7.985   7.155
 4082SOL    HW214254  10.649   7.958   7.173
 4083SOL     OW14255  10.634   6.561   2.042
 4083SOL    HW114256  10.672   6.578   2.128
 4083SOL    HW214257  10.619   6.466   2.041
 4084SOL     OW14258   3.315   9.191   9.860
 4084SOL    HW114259   3.310   9.104   9.820
 4084SOL    HW214260   3.234   9.200   9.909
 4085SOL     OW14261   5.144  10.993   1.834
 4085SOL    HW114262   5.099  11.001   1.918
 4085SOL    HW214263   5.086  11.037   1.771
 4086SOL     OW14264   1.798   1.543   0.842
 4086SOL    HW114265   1.851   1.622   0.851
 4086SOL    HW214266   1.862   1.471   0.835
 4087SOL     OW14267   2.621   8.649   9.327
 4087SOL    HW114268   2.590   8.640   9.417
 4087SOL    HW214269   2.550   8.695   9.282
 4088SOL     OW14270   5.155   1.259   4.813
 4088SOL    HW114271   5.162   1.165   4.793
 4088SOL    HW214272   5.062   1.273   4.827
 4089SOL     OW14273   6.345   2.997   7.697
 4089SOL    HW114274   6.398   3.060   7.746
 4089SOL    HW214275   6.281   3.050   7.650
 4090SOL     OW14276   0.647   2.553   5.667
 4090SOL    HW114277   0.617   2.476   5.618
 4090SOL    HW214278   0.662   2.619   5.600
 4091SOL     OW14279   1.214   8.877   9.115
 4091SOL    HW114280   1.301   8.836   9.116
 4091SOL    HW214281   1.228   8.964   9.152
 4092SOL     OW14282   3.586   4.843   0.458
 4092SOL    HW114283   3.581   4.816   0.549
 4092SOL    HW214284   3.677   4.826   0.433
 4093SOL     OW14285   1.657   1.501   8.683
 4093SOL    HW114286   1.749   1.484   8.661
 4093SOL    HW214287   1.653   1.495   8.778
 4094SOL     OW14288   1.889   2.111   7.980
 4094SOL    HW114289   1.936   2.188   7.949
 4094SOL    HW214290   1.923   2.039   7.927
 4095SOL     OW14291   1.629   6.755   4.804
 4095SOL    HW114292   1.608   6.792   4.889
 4095SOL    HW214293   1.720   6.727   4.811
 4096SOL     OW14294   4.395  10.689   0.373
 4096SOL    HW114295   4.427  10.653   0.455
 4096SOL    HW214296   4.374  10.780   0.393
 4097SOL     OW14297   4.066   2.409   1.668
 4097SOL    HW114298   3.985   2.440   1.627
 4097SOL    HW214299   4.082   2.323   1.627
 4098SOL     OW14300   5.477   8.853   0.826
 4098SOL    HW114301   5.443   8.768   0.854
 4098SOL    HW214302   5.480   8.905   0.906
 4099SOL     OW14303   8.763   4.044   4.156
 4099SOL    HW114304   8.856   4.062   4.168
 4099SOL    HW214305   8.745   4.074   4.067
 4100SOL     OW14306  10.074   5.896   3.221
 4100SOL    HW114307  10.059   5.973   3.276
 4100SOL    HW214308  10.169   5.891   3.211
 4101SOL     OW14309   4.626   4.091   0.533
 4101SOL    HW114310   4.545   4.057   0.493
 4101SOL    HW214311   4.597   4.150   0.602
 4102SOL     OW14312   2.817   6.452   3.297
 4102SOL    HW114313   2.880   6.448   3.369
 4102SOL    HW214314   2.869   6.429   3.219
 4103SOL     OW14315   5.262   2.060   8.690
 4103SOL    HW114316   5.328   2.126   8.711
 4103SOL    HW214317   5.309   1.977   8.699
 4104SOL     OW14318  10.797   8.360   6.737
 4104SOL    HW114319  10.801   8.346   6.831
 4104SOL    HW214320  10.885   8.391   6.713
 4105SOL     OW14321   0.443   6.861   6.132
 4105SOL    HW114322   0.354   6.878   6.163
 4105SOL    HW214323   0.497   6.924   6.178
 4106SOL     OW14324   2.070   4.343   2.176
 4106SOL    HW114325   2.076   4.336   2.271
 4106SOL    HW214326   2.150   4.300   2.143
 4107SOL     OW14327  10.339   2.879   4.585
 4107SOL    HW114328  10.255   2.874   4.539
 4107SOL    HW214329  10.348   2.971   4.608
 4108SOL     OW14330   4.199   5.350   6.033
 4108SOL    HW114331   4.279   5.354   5.981
 4108SOL    HW214332   4.229   5.331   6.122
 4109SOL     OW14333   2.253   8.203   5.216
 4109SOL    HW114334   2.262   8.177   5.124
 4109SOL    HW214335   2.168   8.246   5.221
 4110SOL     OW14336   3.508   7.953   5.583
 4110SOL    HW114337   3.505   7.972   5.676
 4110SOL    HW214338   3.543   7.864   5.578
 4111SOL     OW14339   0.724   6.488   0.165
 4111SOL    HW114340   0.760   6.469   0.079
 4111SOL    HW214341   0.775   6.563   0.197
 4112SOL     OW14342   3.636   3.157   2.978
 4112SOL    HW114343   3.550   3.120   2.998
 4112SOL    HW214344   3.697   3.105   3.030
 4113SOL     OW14345   7.959   5.081   3.871
 4113SOL    HW114346   7.973   5.082   3.776
 4113SOL    HW214347   7.947   5.173   3.895
 4114SOL     OW14348   4.625   7.144   1.664
 4114SOL    HW114349   4.545   7.092   1.660
 4114SOL    HW214350   4.611   7.205   1.736
 4115SOL     OW14351   1.461   3.383   4.539
 4115SOL    HW114352   1.490   3.453   4.597
 4115SOL    HW214353   1.462   3.422   4.452
 4116SOL     OW14354   1.431   4.100   5.327
 4116SOL    HW114355   1.418   4.039   5.399
 4116SOL    HW214356   1.471   4.047   5.258
 4117SOL     OW14357   8.813   5.372   0.784
 4117SOL    HW114358   8.904   5.342   0.788
 4117SOL    HW214359   8.762   5.297   0.815
 4118SOL     OW14360  10.634   3.527   8.592
 4118SOL    HW114361  10.722   3.530   8.553
 4118SOL    HW214362  10.602   3.439   8.571
 4119SOL     OW14363   1.020   6.951   2.064
 4119SOL    HW114364   1.062   6.972   1.980
 4119SOL    HW214365   1.033   7.028   2.118
 4120SOL     OW14366   2.446   5.938   0.902
 4120SOL    HW114367   2.504   5.870   0.937
 4120SOL    HW214368   2.366   5.931   0.954
 4121SOL     OW14369   6.769   3.284   7.452
 4121SOL    HW114370   6.787   3.352   7.387
 4121SOL    HW214371   6.850   3.234   7.457
 4122SOL     OW14372  10.579   7.679   9.635
 4122SOL    HW114373  10.621   7.689   9.549
 4122SOL    HW214374  10.529   7.597   9.627
 4123SOL     OW14375   6.862   5.048   3.349
 4123SOL    HW114376   6.945   5.061   3.395
 4123SOL    HW214377   6.831   4.962   3.379
 4124SOL     OW14378   2.923   6.925   4.651
 4124SOL    HW114379   2.945   6.956   4.738
 4124SOL    HW214380   2.919   6.829   4.659
 4125SOL     OW14381   7.271   1.570   2.389
 4125SOL    HW114382   7.359   1.531   2.394
 4125SOL    HW214383   7.241   1.548   2.301
 4126SOL     OW14384   4.743   3.639   9.494
 4126SOL    HW114385   4.774   3.715   9.445
 4126SOL    HW214386   4.736   3.570   9.428
 4127SOL     OW14387   2.495   4.460   3.440
 4127SOL    HW114388   2.559   4.521   3.474
 4127SOL    HW214389   2.537   4.421   3.363
 4128SOL     OW14390   9.991   3.537   3.796
 4128SOL    HW114391   9.929   3.516   3.866
 4128SOL    HW214392  10.000   3.455   3.747
 4129SOL     OW14393   5.394   7.934   2.639
 4129SOL    HW114394   5.368   8.019   2.605
 4129SOL    HW214395   5.435   7.953   2.723
 4130SOL     OW14396   0.494   8.172   9.562
 4130SOL    HW114397   0.461   8.260   9.576
 4130SOL    HW214398   0.554   8.180   9.488
 4131SOL     OW14399   3.297   8.861   9.005
 4131SOL    HW114400   3.271   8.792   9.066
 4131SOL    HW214401   3.388   8.881   9.028
 4132SOL     OW14402   3.018   4.013   9.561
 4132SOL    HW114403   2.929   4.045   9.546
 4132SOL    HW214404   3.013   3.919   9.541
 4133SOL     OW14405   6.951   4.024   3.253
 4133SOL    HW114406   7.032   4.018   3.203
 4133SOL    HW214407   6.965   4.097   3.313
 4134SOL     OW14408   2.962   7.378  10.611
 4134SOL    HW114409   2.927   7.460  10.645
 4134SOL    HW214410   3.056   7.395  10.599
 4135SOL     OW14411   0.984   1.293   5.857
 4135SOL    HW114412   0.897   1.255   5.870
 4135SOL    HW214413   0.968   1.385   5.836
 4136SOL     OW14414   1.404   4.105   6.551
 4136SOL    HW114415   1.358   4.044   6.493
 4136SOL    HW214416   1.490   4.065   6.564
 4137SOL     OW14417   0.337   9.949   2.742
 4137SOL    HW114418   0.364   9.977   2.654
 4137SOL    HW214419   0.348   9.854   2.741
 4138SOL     OW14420   4.027   4.362   2.891
 4138SOL    HW114421   3.991   4.401   2.970
 4138SOL    HW214422   4.122   4.374   2.899
 4139SOL     OW14423   7.437   7.017   0.472
 4139SOL    HW114424   7.404   6.935   0.434
 4139SOL    HW214425   7.502   7.048   0.409
 4140SOL     OW14426   5.894   8.700   3.688
 4140SOL    HW114427   5.905   8.793   3.671
 4140SOL    HW214428   5.824   8.673   3.628
 4141SOL     OW14429   5.240   5.319  10.091
 4141SOL    HW114430   5.172   5.271  10.044
 4141SOL    HW214431   5.307   5.337  10.025
 4142SOL     OW14432   2.951   6.004   7.980
 4142SOL    HW114433   3.044   5.985   7.967
 4142SOL    HW214434   2.911   5.917   7.990
 4143SOL     OW14435   5.834   5.996   2.969
 4143SOL    HW114436   5.909   6.010   3.026
 4143SOL    HW214437   5.823   5.901   2.966
 4144SOL     OW14438   4.242   8.219   1.284
 4144SOL    HW114439   4.187   8.152   1.324
 4144SOL    HW214440   4.182   8.290   1.262
 4145SOL     OW14441   5.469   2.482   8.916
 4145SOL    HW114442   5.452   2.498   9.009
 4145SOL    HW214443   5.424   2.552   8.870
 4146SOL     OW14444   6.169   0.527   1.583
 4146SOL    HW114445   6.116   0.541   1.661
 4146SOL    HW214446   6.259   0.525   1.615
 4147SOL     OW14447   3.577   6.718  10.928
 4147SOL    HW114448   3.617   6.800  10.901
 4147SOL    HW214449   3.618   6.652  10.872
 4148SOL     OW14450   6.945   1.971   7.340
 4148SOL    HW114451   6.975   1.999   7.253
 4148SOL    HW214452   6.996   2.024   7.401
 4149SOL     OW14453  10.622   8.294   4.577
 4149SOL    HW114454  10.654   8.248   4.499
 4149SOL    HW214455  10.591   8.378   4.544
 4150SOL     OW14456   9.290   5.373   2.000
 4150SOL    HW114457   9.229   5.384   1.927
 4150SOL    HW214458   9.376   5.395   1.963
 4151SOL     OW14459   4.501   6.266   4.870
 4151SOL    HW114460   4.550   6.326   4.926
 4151SOL    HW214461   4.488   6.187   4.923
 4152SOL     OW14462   0.322   4.577   0.885
 4152SOL    HW114463   0.398   4.634   0.886
 4152SOL    HW214464   0.249   4.632   0.914
 4153SOL     OW14465   0.285   6.543   1.817
 4153SOL    HW114466   0.341   6.470   1.844
 4153SOL    HW214467   0.240   6.570   1.897
 4154SOL     OW14468   2.300   4.932   7.531
 4154SOL    HW114469   2.372   4.970   7.581
 4154SOL    HW214470   2.270   5.003   7.474
 4155SOL     OW14471   7.485   1.395   0.412
 4155SOL    HW114472   7.476   1.483   0.449
 4155SOL    HW214473   7.580   1.380   0.408
 4156SOL     OW14474   7.894   0.711  11.089
 4156SOL    HW114475   7.834   0.654  11.137
 4156SOL    HW214476   7.913   0.783  11.149
 4157SOL     OW14477  10.116   5.278   2.220
 4157SOL    HW114478  10.108   5.265   2.314
 4157SOL    HW214479  10.031   5.251   2.184
 4158SOL     OW14480   4.750  10.383   1.344
 4158SOL    HW114481   4.754  10.355   1.435
 4158SOL    HW214482   4.834  10.355   1.307
 4159SOL     OW14483   8.624   7.376   1.896
 4159SOL    HW114484   8.573   7.375   1.815
 4159SOL    HW214485   8.627   7.468   1.921
 4160SOL     OW14486   9.770   0.975   6.614
 4160SOL    HW114487   9.724   1.059   6.612
 4160SOL    HW214488   9.722   0.923   6.678
 4161SOL     OW14489   6.244   6.636   8.107
 4161SOL    HW114490   6.222   6.553   8.149
 4161SOL    HW214491   6.160   6.679   8.094
 4162SOL     OW14492   1.023   6.202   1.596
 4162SOL    HW114493   0.993   6.125   1.644
 4162SOL    HW214494   0.949   6.262   1.598
 4163SOL     OW14495  10.413   8.116   1.526
 4163SOL    HW114496  10.426   8.210   1.512
 4163SOL    HW214497  10.390   8.108   1.618
 4164SOL     OW14498   6.993   5.596  10.555
 4164SOL    HW114499   6.985   5.575  10.648
 4164SOL    HW214500   7.061   5.663  10.551
 4165SOL     OW14501   8.876   7.695   1.301
 4165SOL    HW114502   8.883   7.599   1.303
 4165SOL    HW214503   8.892   7.717   1.209
 4166SOL     OW14504  10.398   4.784   6.555
 4166SOL    HW114505  10.386   4.782   6.650
 4166SOL    HW214506  10.402   4.877   6.532
 4167SOL     OW14507   9.994   1.949   8.383
 4167SOL    HW114508   9.975   1.856   8.395
 4167SOL    HW214509   9.937   1.976   8.311
 4168SOL     OW14510   3.860   8.274   0.093
 4168SOL    HW114511   3.913   8.225   0.156
 4168SOL    HW214512   3.924   8.314   0.035
 4169SOL     OW14513   2.009   5.685   5.109
 4169SOL    HW114514   1.964   5.610   5.148
 4169SOL    HW214515   1.947   5.720   5.045
 4170SOL     OW14516   7.162   9.221  10.252
 4170SOL    HW114517   7.254   9.196  10.259
 4170SOL    HW214518   7.162   9.299  10.197
 4171SOL     OW14519   2.034   8.080   9.676
 4171SOL    HW114520   2.019   8.114   9.588
 4171SOL    HW214521   2.095   8.142   9.716
 4172SOL     OW14522   3.285   9.221  10.933
 4172SOL    HW114523   3.276   9.125  10.931
 4172SOL    HW214524   3.364   9.236  10.985
 4173SOL     OW14525   0.906  10.605   1.192
 4173SOL    HW114526   0.940  10.572   1.275
 4173SOL    HW214527   0.954  10.555   1.125
 4174SOL     OW14528   4.521   6.166   9.579
 4174SOL    HW114529   4.558   6.179   9.666
 4174SOL    HW214530   4.461   6.239   9.566
 4175SOL     OW14531   4.822   0.569  10.487
 4175SOL    HW114532   4.879   0.557  10.563
 4175SOL    HW214533   4.733   0.560  10.522
 4176SOL     OW14534  10.839   0.636   0.651
 4176SOL    HW114535  10.807   0.682   0.573
 4176SOL    HW214536  10.805   0.547   0.641
 4177SOL     OW14537   0.264   3.357   4.876
 4177SOL    HW114538   0.335   3.390   4.820
 4177SOL    HW214539   0.211   3.303   4.817
 4178SOL     OW14540  10.913   8.453   4.514
 4178SOL    HW114541  11.004   8.442   4.486
 4178SOL    HW214542  10.897   8.378   4.572
 4179SOL     OW14543   3.736   4.900  10.575
 4179SOL    HW114544   3.715   4.991  10.556
 4179SOL    HW214545   3.728   4.856  10.490
 4180SOL     OW14546   3.745   3.126  10.177
 4180SOL    HW114547   3.778   3.167  10.257
 4180SOL    HW214548   3.702   3.045  10.207
 4181SOL     OW14549   0.284   8.252  10.024
 4181SOL    HW114550   0.216   8.250  10.092
 4181SOL    HW214551   0.258   8.182   9.963
 4182SOL     OW14552   5.288   2.853   1.610
 4182SOL    HW114553   5.347   2.893   1.674
 4182SOL    HW214554   5.327   2.767   1.592
 4183SOL     OW14555   5.704  10.383   2.800
 4183SOL    HW114556   5.775  10.445   2.817
 4183SOL    HW214557   5.715  10.359   2.708
 4184SOL     OW14558   1.042  11.059   5.120
 4184SOL    HW114559   1.030  11.026   5.031
 4184SOL    HW214560   1.009  11.149   5.117
 4185SOL     OW14561   4.334   5.578   0.473
 4185SOL    HW114562   4.344   5.495   0.426
 4185SOL    HW214563   4.321   5.552   0.564
 4186SOL     OW14564  10.720   2.797   3.132
 4186SOL    HW114565  10.750   2.861   3.196
 4186SOL    HW214566  10.667   2.735   3.182
 4187SOL     OW14567   1.724   6.477   6.497
 4187SOL    HW114568   1.797   6.489   6.436
 4187SOL    HW214569   1.749   6.401   6.550
 4188SOL     OW14570   4.974   2.857   5.764
 4188SOL    HW114571   5.026   2.801   5.821
 4188SOL    HW214572   4.894   2.875   5.813
 4189SOL     OW14573   8.916   9.530   5.470
 4189SOL    HW114574   8.892   9.619   5.493
 4189SOL    HW214575   8.954   9.494   5.550
 4190SOL     OW14576   7.492   4.769   7.628
 4190SOL    HW114577   7.553   4.717   7.575
 4190SOL    HW214578   7.407   4.728   7.612
 4191SOL     OW14579   8.038   2.358   3.353
 4191SOL    HW114580   8.065   2.266   3.356
 4191SOL    HW214581   7.966   2.360   3.290
 4192SOL     OW14582   4.305   4.939   3.829
 4192SOL    HW114583   4.284   5.007   3.893
 4192SOL    HW214584   4.247   4.866   3.851
 4193SOL     OW14585   6.321   3.292   2.447
 4193SOL    HW114586   6.304   3.227   2.378
 4193SOL    HW214587   6.257   3.272   2.515
 4194SOL     OW14588   3.655   7.845   2.091
 4194SOL    HW114589   3.593   7.915   2.074
 4194SOL    HW214590   3.601   7.765   2.092
 4195SOL     OW14591   6.534   8.490   1.107
 4195SOL    HW114592   6.501   8.452   1.025
 4195SOL    HW214593   6.508   8.427   1.174
 4196SOL     OW14594   2.146   4.273   4.620
 4196SOL    HW114595   2.119   4.353   4.664
 4196SOL    HW214596   2.186   4.303   4.538
 4197SOL     OW14597   7.875   6.929   3.402
 4197SOL    HW114598   7.804   6.884   3.448
 4197SOL    HW214599   7.854   7.022   3.409
 4198SOL     OW14600   3.639  10.458   6.167
 4198SOL    HW114601   3.670  10.426   6.252
 4198SOL    HW214602   3.700  10.419   6.103
 4199SOL     OW14603   7.039   1.433   5.570
 4199SOL    HW114604   7.106   1.501   5.566
 4199SOL    HW214605   7.019   1.424   5.663
 4200SOL     OW14606   5.492  10.308   6.467
 4200SOL    HW114607   5.481  10.331   6.374
 4200SOL    HW214608   5.585  10.321   6.484
 4201SOL     OW14609   2.258   8.034   2.288
 4201SOL    HW114610   2.265   7.948   2.330
 4201SOL    HW214611   2.238   8.013   2.196
 4202SOL     OW14612   2.426   3.072   9.163
 4202SOL    HW114613   2.402   2.980   9.179
 4202SOL    HW214614   2.521   3.070   9.150
 4203SOL     OW14615   3.156   8.567   6.013
 4203SOL    HW114616   3.245   8.569   5.978
 4203SOL    HW214617   3.143   8.654   6.050
 4204SOL     OW14618   2.576   1.549   3.505
 4204SOL    HW114619   2.512   1.538   3.575
 4204SOL    HW214620   2.654   1.585   3.548
 4205SOL     OW14621   6.003  10.862   4.539
 4205SOL    HW114622   6.036  10.928   4.478
 4205SOL    HW214623   6.015  10.779   4.493
 4206SOL     OW14624   3.613   6.942   4.213
 4206SOL    HW114625   3.668   6.909   4.142
 4206SOL    HW214626   3.526   6.906   4.194
 4207SOL     OW14627   6.474   4.466   3.483
 4207SOL    HW114628   6.439   4.403   3.419
 4207SOL    HW214629   6.481   4.548   3.434
 4208SOL     OW14630   2.215   7.197   3.110
 4208SOL    HW114631   2.269   7.262   3.155
 4208SOL    HW214632   2.139   7.246   3.079
 4209SOL     OW14633   4.457   4.112  10.033
 4209SOL    HW114634   4.530   4.052  10.014
 4209SOL    HW214635   4.446   4.162   9.952
 4210SOL     OW14636   8.857   6.709   6.562
 4210SOL    HW114637   8.947   6.690   6.535
 4210SOL    HW214638   8.826   6.774   6.499
 4211SOL     OW14639   2.514   2.830  10.501
 4211SOL    HW114640   2.564   2.893  10.449
 4211SOL    HW214641   2.429   2.871  10.513
 4212SOL     OW14642   0.524   0.957   1.743
 4212SOL    HW114643   0.513   1.050   1.724
 4212SOL    HW214644   0.472   0.942   1.822
 4213SOL     OW14645   3.200   3.539   3.784
 4213SOL    HW114646   3.162   3.486   3.713
 4213SOL    HW214647   3.226   3.621   3.742
 4214SOL     OW14648   0.993  10.829   4.175
 4214SOL    HW114649   1.066  10.883   4.144
 4214SOL    HW214650   0.919  10.855   4.120
 4215SOL     OW14651  10.409   2.528   8.311
 4215SOL    HW114652  10.465   2.529   8.388
 4215SOL    HW214653  10.342   2.594   8.329
 4216SOL     OW14654   3.562  10.510   7.130
 4216SOL    HW114655   3.570  10.473   7.042
 4216SOL    HW214656   3.586  10.438   7.188
 4217SOL     OW14657   3.470   6.021   5.443
 4217SOL    HW114658   3.387   6.059   5.472
 4217SOL    HW214659   3.535   6.089   5.459
 4218SOL     OW14660   4.519   6.741   2.401
 4218SOL    HW114661   4.485   6.785   2.479
 4218SOL    HW214662   4.546   6.812   2.343
 4219SOL     OW14663   6.029   2.207   3.583
 4219SOL    HW114664   6.102   2.240   3.635
 4219SOL    HW214665   5.952   2.224   3.636
 4220SOL     OW14666  10.875   4.345   5.171
 4220SOL    HW114667  10.905   4.363   5.082
 4220SOL    HW214668  10.893   4.252   5.184
 4221SOL     OW14669   3.487   2.978   0.912
 4221SOL    HW114670   3.414   2.959   0.971
 4221SOL    HW214671   3.565   2.953   0.961
 4222SOL     OW14672   6.144   2.909   2.974
 4222SOL    HW114673   6.109   2.987   2.932
 4222SOL    HW214674   6.231   2.898   2.935
 4223SOL     OW14675   5.828   3.207   2.435
 4223SOL    HW114676   5.757   3.181   2.376
 4223SOL    HW214677   5.794   3.189   2.522
 4224SOL     OW14678  10.125   5.151   7.286
 4224SOL    HW114679  10.187   5.222   7.270
 4224SOL    HW214680  10.175   5.071   7.270
 4225SOL     OW14681   9.338   4.329   1.208
 4225SOL    HW114682   9.402   4.302   1.273
 4225SOL    HW214683   9.390   4.373   1.140
 4226SOL     OW14684   1.079   4.024   1.560
 4226SOL    HW114685   1.141   3.988   1.624
 4226SOL    HW214686   1.074   3.957   1.491
 4227SOL     OW14687   5.167   0.575   1.692
 4227SOL    HW114688   5.114   0.575   1.612
 4227SOL    HW214689   5.195   0.484   1.702
 4228SOL     OW14690   2.780   7.533   1.389
 4228SOL    HW114691   2.816   7.561   1.305
 4228SOL    HW214692   2.856   7.525   1.446
 4229SOL     OW14693   9.847   8.293   2.887
 4229SOL    HW114694   9.877   8.296   2.796
 4229SOL    HW214695   9.794   8.213   2.892
 4230SOL     OW14696   0.624   4.539   2.662
 4230SOL    HW114697   0.556   4.515   2.725
 4230SOL    HW214698   0.684   4.464   2.662
 4231SOL     OW14699   0.638   3.564   9.114
 4231SOL    HW114700   0.715   3.509   9.129
 4231SOL    HW214701   0.664   3.651   9.144
 4232SOL     OW14702  10.653   7.954  10.983
 4232SOL    HW114703  10.734   7.903  10.978
 4232SOL    HW214704  10.675   8.028  11.038
 4233SOL     OW14705   4.797   9.167   3.205
 4233SOL    HW114706   4.782   9.217   3.284
 4233SOL    HW214707   4.726   9.193   3.146
 4234SOL     OW14708   3.174   4.176   8.310
 4234SOL    HW114709   3.241   4.203   8.247
 4234SOL    HW214710   3.100   4.234   8.292
 4235SOL     OW14711   0.821   4.451   1.856
 4235SOL    HW114712   0.892   4.450   1.920
 4235SOL    HW214713   0.807   4.543   1.837
 4236SOL     OW14714   2.328  10.361   9.176
 4236SOL    HW114715   2.256  10.410   9.216
 4236SOL    HW214716   2.293  10.330   9.092
 4237SOL     OW14717   7.367   7.238   1.483
 4237SOL    HW114718   7.395   7.327   1.462
 4237SOL    HW214719   7.287   7.249   1.534
 4238SOL     OW14720  10.501   7.712   4.585
 4238SOL    HW114721  10.475   7.773   4.516
 4238SOL    HW214722  10.553   7.646   4.539
 4239SOL     OW14723   6.398   1.370   0.706
 4239SOL    HW114724   6.386   1.460   0.734
 4239SOL    HW214725   6.385   1.318   0.785
 4240SOL     OW14726   7.869   5.171   0.676
 4240SOL    HW114727   7.965   5.166   0.678
 4240SOL    HW214728   7.850   5.261   0.651
 4241SOL     OW14729   1.589   1.032   2.166
 4241SOL    HW114730   1.617   1.029   2.257
 4241SOL    HW214731   1.532   1.109   2.161
 4242SOL     OW14732   2.986   8.233   8.747
 4242SOL    HW114733   3.042   8.171   8.700
 4242SOL    HW214734   3.046   8.284   8.801
 4243SOL     OW14735   2.008   6.841   9.231
 4243SOL    HW114736   2.079   6.811   9.173
 4243SOL    HW214737   1.931   6.844   9.174
 4244SOL     OW14738   7.441   0.659   3.476
 4244SOL    HW114739   7.360   0.653   3.527
 4244SOL    HW214740   7.503   0.602   3.522
 4245SOL     OW14741   8.930   3.603   4.262
 4245SOL    HW114742   8.967   3.680   4.304
 4245SOL    HW214743   8.852   3.583   4.313
 4246SOL     OW14744   0.382   0.622   4.821
 4246SOL    HW114745   0.433   0.560   4.769
 4246SOL    HW214746   0.398   0.706   4.779
 4247SOL     OW14747  10.605   5.949   5.420
 4247SOL    HW114748  10.588   5.869   5.369
 4247SOL    HW214749  10.697   5.942   5.445
 4248SOL     OW14750   7.366   9.087   4.024
 4248SOL    HW114751   7.389   9.008   3.975
 4248SOL    HW214752   7.272   9.079   4.039
 4249SOL     OW14753   8.326   3.455   3.688
 4249SOL    HW114754   8.340   3.543   3.655
 4249SOL    HW214755   8.281   3.409   3.616
 4250SOL     OW14756   4.249   0.982   3.330
 4250SOL    HW114757   4.299   0.906   3.299
 4250SOL    HW214758   4.302   1.057   3.306
 4251SOL     OW14759   1.322   6.791  10.644
 4251SOL    HW114760   1.238   6.814  10.683
 4251SOL    HW214761   1.307   6.706  10.602
 4252SOL     OW14762  10.846   6.080   7.803
 4252SOL    HW114763  10.928   6.128   7.792
 4252SOL    HW214764  10.869   5.989   7.783
 4253SOL     OW14765   0.570   3.213   3.627
 4253SOL    HW114766   0.552   3.243   3.716
 4253SOL    HW214767   0.659   3.243   3.609
 4254SOL     OW14768   0.911   6.404   6.527
 4254SOL    HW114769   0.828   6.361   6.506
 4254SOL    HW214770   0.919   6.397   6.622
 4255SOL     OW14771   1.779   5.827   8.861
 4255SOL    HW114772   1.770   5.777   8.942
 4255SOL    HW214773   1.866   5.805   8.828
 4256SOL     OW14774   3.209   7.143   6.887
 4256SOL    HW114775   3.185   7.194   6.964
 4256SOL    HW214776   3.139   7.079   6.877
 4257SOL     OW14777  10.819   1.474   2.507
 4257SOL    HW114778  10.889   1.518   2.460
 4257SOL    HW214779  10.763   1.544   2.539
 4258SOL     OW14780   5.527  10.631   0.348
 4258SOL    HW114781   5.507  10.620   0.255
 4258SOL    HW214782   5.469  10.701   0.377
 4259SOL     OW14783   2.801  10.536   7.254
 4259SOL    HW114784   2.889  10.556   7.285
 4259SOL    HW214785   2.806  10.445   7.226
 4260SOL     OW14786   1.705   3.455   8.586
 4260SOL    HW114787   1.714   3.367   8.548
 4260SOL    HW214788   1.794   3.491   8.585
 4261SOL     OW14789   7.357   7.458   8.666
 4261SOL    HW114790   7.289   7.398   8.696
 4261SOL    HW214791   7.309   7.532   8.629
 4262SOL     OW14792   2.188  11.018   9.506
 4262SOL    HW114793   2.123  10.948   9.506
 4262SOL    HW214794   2.249  10.994   9.436
 4263SOL     OW14795   5.416  10.349   7.399
 4263SOL    HW114796   5.508  10.369   7.382
 4263SOL    HW214797   5.411  10.253   7.391
 4264SOL     OW14798   9.409   6.523  10.796
 4264SOL    HW114799   9.411   6.585  10.723
 4264SOL    HW214800   9.434   6.575  10.872
 4265SOL     OW14801   6.111   7.828   4.179
 4265SOL    HW114802   6.129   7.858   4.268
 4265SOL    HW214803   6.017   7.841   4.167
 4266SOL     OW14804   2.363   5.998  10.688
 4266SOL    HW114805   2.334   5.979  10.598
 4266SOL    HW214806   2.390   5.913  10.723
 4267SOL     OW14807   1.697   6.466   0.619
 4267SOL    HW114808   1.681   6.527   0.691
 4267SOL    HW214809   1.785   6.487   0.588
 4268SOL     OW14810  10.947   3.203   0.308
 4268SOL    HW114811  10.984   3.152   0.380
 4268SOL    HW214812  10.950   3.143   0.233
 4269SOL     OW14813   2.969   3.444   4.365
 4269SOL    HW114814   3.014   3.527   4.355
 4269SOL    HW214815   2.886   3.466   4.407
 4270SOL     OW14816   8.185   4.718   2.220
 4270SOL    HW114817   8.201   4.812   2.217
 4270SOL    HW214818   8.192   4.690   2.128
 4271SOL     OW14819   3.357   9.010   3.868
 4271SOL    HW114820   3.334   8.923   3.836
 4271SOL    HW214821   3.452   9.016   3.855
 4272SOL     OW14822  10.768   8.337   9.042
 4272SOL    HW114823  10.732   8.339   8.953
 4272SOL    HW214824  10.861   8.316   9.030
 4273SOL     OW14825  10.373   1.116   1.751
 4273SOL    HW114826  10.432   1.040   1.754
 4273SOL    HW214827  10.287   1.078   1.731
 4274SOL     OW14828   1.014   6.534   2.812
 4274SOL    HW114829   0.936   6.481   2.830
 4274SOL    HW214830   1.067   6.527   2.891
 4275SOL     OW14831   6.229   4.498   9.729
 4275SOL    HW114832   6.311   4.463   9.764
 4275SOL    HW214833   6.232   4.591   9.750
 4276SOL     OW14834   3.341  10.238   3.742
 4276SOL    HW114835   3.357  10.318   3.692
 4276SOL    HW214836   3.393  10.248   3.821
 4277SOL     OW14837   6.025   1.782   3.763
 4277SOL    HW114838   6.081   1.853   3.795
 4277SOL    HW214839   5.948   1.784   3.820
 4278SOL     OW14840   0.201   6.777   0.967
 4278SOL    HW114841   0.177   6.803   1.056
 4278SOL    HW214842   0.147   6.700   0.949
 4279SOL     OW14843   4.410   7.280   8.452
 4279SOL    HW114844   4.496   7.237   8.453
 4279SOL    HW214845   4.415   7.345   8.522
 4280SOL     OW14846   9.939   6.114   4.912
 4280SOL    HW114847   9.985   6.082   4.990
 4280SOL    HW214848   9.847   6.118   4.938
 4281SOL     OW14849   3.697   7.533   1.001
 4281SOL    HW114850   3.678   7.613   1.049
 4281SOL    HW214851   3.693   7.464   1.067
 4282SOL     OW14852   2.584   3.614   4.835
 4282SOL    HW114853   2.546   3.659   4.759
 4282SOL    HW214854   2.510   3.572   4.878
 4283SOL     OW14855   6.925   7.633   8.249
 4283SOL    HW114856   6.917   7.538   8.234
 4283SOL    HW214857   7.012   7.655   8.217
 4284SOL     OW14858   3.623   2.954   8.662
 4284SOL    HW114859   3.550   2.904   8.624
 4284SOL    HW214860   3.587   3.041   8.678
 4285SOL     OW14861   1.742   7.211   0.967
 4285SOL    HW114862   1.698   7.281   1.014
 4285SOL    HW214863   1.682   7.137   0.971
 4286SOL     OW14864   5.136   1.512   3.903
 4286SOL    HW114865   5.220   1.540   3.866
 4286SOL    HW214866   5.152   1.422   3.932
 4287SOL     OW14867   3.192   3.657  10.307
 4287SOL    HW114868   3.243   3.604  10.246
 4287SOL    HW214869   3.110   3.609  10.317
 4288SOL     OW14870   8.600   2.426   0.825
 4288SOL    HW114871   8.659   2.481   0.876
 4288SOL    HW214872   8.561   2.366   0.889
 4289SOL     OW14873   0.633   3.722   6.314
 4289SOL    HW114874   0.724   3.692   6.318
 4289SOL    HW214875   0.636   3.798   6.256
 4290SOL     OW14876   9.002   4.747   3.929
 4290SOL    HW114877   9.065   4.696   3.877
 4290SOL    HW214878   8.919   4.737   3.882
 4291SOL     OW14879   2.551   4.415   9.159
 4291SOL    HW114880   2.592   4.463   9.087
 4291SOL    HW214881   2.580   4.461   9.238
 4292SOL     OW14882   4.902  10.823   4.587
 4292SOL    HW114883   4.902  10.919   4.583
 4292SOL    HW214884   4.914  10.803   4.679
 4293SOL     OW14885   3.983   6.869   3.223
 4293SOL    HW114886   3.995   6.899   3.133
 4293SOL    HW214887   3.917   6.800   3.217
 4294SOL     OW14888   5.918   1.250   6.053
 4294SOL    HW114889   5.824   1.250   6.035
 4294SOL    HW214890   5.954   1.312   5.990
 4295SOL     OW14891   2.763  10.646   0.116
 4295SOL    HW114892   2.787  10.736   0.094
 4295SOL    HW214893   2.703  10.619   0.047
 4296SOL     OW14894   8.230   3.157  10.258
 4296SOL    HW114895   8.314   3.121  10.287
 4296SOL    HW214896   8.172   3.081  10.254
 4297SOL     OW14897   8.913   2.712   0.456
 4297SOL    HW114898   8.922   2.710   0.551
 4297SOL    HW214899   8.844   2.648   0.437
 4298SOL     OW14900   7.175   0.745   3.778
 4298SOL    HW114901   7.216   0.747   3.864
 4298SOL    HW214902   7.176   0.836   3.748
 4299SOL     OW14903  10.416   3.716   9.918
 4299SOL    HW114904  10.398   3.751  10.005
 4299SOL    HW214905  10.416   3.792   9.860
 4300SOL     OW14906   3.557   6.208   9.856
 4300SOL    HW114907   3.491   6.252   9.908
 4300SOL    HW214908   3.593   6.141   9.914
 4301SOL     OW14909   8.839   0.034   4.098
 4301SOL    HW114910   8.838  -0.059   4.075
 4301SOL    HW214911   8.826   0.035   4.193
 4302SOL     OW14912   9.591   6.577   4.312
 4302SOL    HW114913   9.523   6.531   4.361
 4302SOL    HW214914   9.599   6.661   4.355
 4303SOL     OW14915   9.600   6.873   7.691
 4303SOL    HW114916   9.621   6.964   7.671
 4303SOL    HW214917   9.534   6.878   7.760
 4304SOL     OW14918   0.012   7.650   4.981
 4304SOL    HW114919  -0.004   7.643   5.075
 4304SOL    HW214920   0.037   7.741   4.967
 4305SOL     OW14921   6.006   4.240   3.109
 4305SOL    HW114922   5.963   4.277   3.032
 4305SOL    HW214923   6.058   4.167   3.074
 4306SOL     OW14924   3.091   8.209   0.693
 4306SOL    HW114925   3.012   8.227   0.743
 4306SOL    HW214926   3.100   8.284   0.634
 4307SOL     OW14927   1.200   5.761   1.777
 4307SOL    HW114928   1.240   5.681   1.742
 4307SOL    HW214929   1.127   5.729   1.830
 4308SOL     OW14930  10.857   7.553   9.037
 4308SOL    HW114931  10.896   7.536   9.123
 4308SOL    HW214932  10.923   7.604   8.990
 4309SOL     OW14933   2.743   9.643   3.441
 4309SOL    HW114934   2.773   9.552   3.450
 4309SOL    HW214935   2.710   9.647   3.351
 4310SOL     OW14936  10.883   2.178   8.542
 4310SOL    HW114937  10.818   2.183   8.612
 4310SOL    HW214938  10.839   2.213   8.464
 4311SOL     OW14939   1.559   0.366   2.092
 4311SOL    HW114940   1.648   0.343   2.065
 4311SOL    HW214941   1.537   0.442   2.038
 4312SOL     OW14942   5.343   0.969   5.703
 4312SOL    HW114943   5.404   1.034   5.669
 4312SOL    HW214944   5.389   0.885   5.693
 4313SOL     OW14945   9.979   6.169   6.046
 4313SOL    HW114946   9.935   6.211   6.119
 4313SOL    HW214947  10.009   6.085   6.081
 4314SOL     OW14948   8.869   0.759   2.463
 4314SOL    HW114949   8.781   0.793   2.447
 4314SOL    HW214950   8.921   0.790   2.388
 4315SOL     OW14951  10.151   8.350   7.013
 4315SOL    HW114952  10.231   8.341   6.961
 4315SOL    HW214953  10.110   8.263   7.008
 4316SOL     OW14954   2.991   6.989  10.197
 4316SOL    HW114955   3.063   6.961  10.253
 4316SOL    HW214956   2.912   6.956  10.240
 4317SOL     OW14957   0.926   2.846   0.422
 4317SOL    HW114958   0.909   2.853   0.328
 4317SOL    HW214959   0.862   2.904   0.462
 4318SOL     OW14960   8.833   5.353   3.548
 4318SOL    HW114961   8.766   5.286   3.538
 4318SOL    HW214962   8.785   5.435   3.550
 4319SOL     OW14963   6.315   5.518   3.651
 4319SOL    HW114964   6.241   5.528   3.711
 4319SOL    HW214965   6.356   5.604   3.648
 4320SOL     OW14966   7.358   5.887   2.595
 4320SOL    HW114967   7.330   5.965   2.643
 4320SOL    HW214968   7.397   5.921   2.514
 4321SOL     OW14969   2.025   3.896   2.045
 4321SOL    HW114970   2.046   3.892   2.138
 4321SOL    HW214971   1.985   3.982   2.033
 4322SOL     OW14972   3.711   3.799   0.167
 4322SOL    HW114973   3.724   3.867   0.233
 4322SOL    HW214974   3.721   3.717   0.216
 4323SOL     OW14975   1.506   7.700   5.186
 4323SOL    HW114976   1.474   7.671   5.100
 4323SOL    HW214977   1.586   7.648   5.200
 4324SOL     OW14978   7.968   5.424  10.805
 4324SOL    HW114979   8.016   5.496  10.764
 4324SOL    HW214980   7.982   5.350  10.746
 4325SOL     OW14981   9.885   3.847   3.460
 4325SOL    HW114982   9.892   3.755   3.434
 4325SOL    HW214983   9.972   3.869   3.494
 4326SOL     OW14984  10.389   1.218  10.990
 4326SOL    HW114985  10.365   1.128  10.968
 4326SOL    HW214986  10.306   1.260  11.013
 4327SOL     OW14987   2.273   7.244   6.634
 4327SOL    HW114988   2.218   7.193   6.693
 4327SOL    HW214989   2.280   7.190   6.555
 4328SOL     OW14990   0.625   1.374   3.051
 4328SOL    HW114991   0.586   1.286   3.045
 4328SOL    HW214992   0.644   1.386   3.144
 4329SOL     OW14993   9.645   7.110   0.827
 4329SOL    HW114994   9.602   7.119   0.742
 4329SOL    HW214995   9.679   7.197   0.846
 4330SOL     OW14996  10.276   8.692   6.011
 4330SOL    HW114997  10.299   8.652   5.927
 4330SOL    HW214998  10.360   8.708   6.054
 4331SOL     OW14999   9.818   1.959   9.655
 4331SOL    HW115000   9.788   2.048   9.670
 4331SOL    HW215001   9.905   1.969   9.617
 4332SOL     OW15002   1.079   0.472   8.743
 4332SOL    HW115003   1.147   0.534   8.770
 4332SOL    HW215004   0.997   0.517   8.761
 4333SOL     OW15005   1.283   4.243   4.954
 4333SOL    HW115006   1.216   4.253   4.886
 4333SOL    HW215007   1.323   4.329   4.961
 4334SOL     OW15008   5.730  10.028   6.483
 4334SOL    HW115009   5.705  10.090   6.414
 4334SOL    HW215010   5.822  10.008   6.465
 4335SOL     OW15011   9.491   5.254   9.702
 4335SOL    HW115012   9.529   5.267   9.789
 4335SOL    HW215013   9.469   5.161   9.699
 4336SOL     OW15014   8.723   7.060   5.590
 4336SOL    HW115015   8.681   7.008   5.658
 4336SOL    HW215016   8.817   7.046   5.603
 4337SOL     OW15017   8.924   0.957   5.592
 4337SOL    HW115018   9.018   0.963   5.574
 4337SOL    HW215019   8.912   1.005   5.674
 4338SOL     OW15020   7.478   8.510   1.259
 4338SOL    HW115021   7.466   8.528   1.352
 4338SOL    HW215022   7.406   8.451   1.236
 4339SOL     OW15023   7.929   0.914   1.242
 4339SOL    HW115024   7.940   0.826   1.206
 4339SOL    HW215025   7.836   0.919   1.264
 4340SOL     OW15026   4.850   7.726   1.236
 4340SOL    HW115027   4.760   7.754   1.250
 4340SOL    HW215028   4.849   7.632   1.255
 4341SOL     OW15029   0.505   3.895   0.367
 4341SOL    HW115030   0.565   3.863   0.299
 4341SOL    HW215031   0.506   3.827   0.434
 4342SOL     OW15032   5.647   0.068   1.929
 4342SOL    HW115033   5.691   0.119   1.997
 4342SOL    HW215034   5.718   0.032   1.876
 4343SOL     OW15035   6.521   4.712   4.547
 4343SOL    HW115036   6.444   4.667   4.582
 4343SOL    HW215037   6.556   4.762   4.620
 4344SOL     OW15038   5.638   8.286   4.653
 4344SOL    HW115039   5.720   8.254   4.615
 4344SOL    HW215040   5.661   8.369   4.694
 4345SOL     OW15041   0.886   8.757   4.370
 4345SOL    HW115042   0.918   8.776   4.282
 4345SOL    HW215043   0.901   8.838   4.419
 4346SOL     OW15044   1.774   1.983   7.628
 4346SOL    HW115045   1.738   1.978   7.716
 4346SOL    HW215046   1.835   1.909   7.623
 4347SOL     OW15047   7.633   1.446   4.716
 4347SOL    HW115048   7.596   1.526   4.752
 4347SOL    HW215049   7.664   1.470   4.629
 4348SOL     OW15050   2.861   0.856   9.402
 4348SOL    HW115051   2.770   0.880   9.419
 4348SOL    HW215052   2.890   0.812   9.482
 4349SOL     OW15053  10.247   6.488   8.658
 4349SOL    HW115054  10.195   6.559   8.621
 4349SOL    HW215055  10.301   6.530   8.725
 4350SOL     OW15056   1.293   2.098   5.186
 4350SOL    HW115057   1.254   2.011   5.179
 4350SOL    HW215058   1.322   2.104   5.277
 4351SOL     OW15059   0.631   6.827   4.665
 4351SOL    HW115060   0.691   6.899   4.683
 4351SOL    HW215061   0.577   6.820   4.743
 4352SOL     OW15062   0.310   8.298   2.342
 4352SOL    HW115063   0.236   8.311   2.401
 4352SOL    HW215064   0.278   8.329   2.257
 4353SOL     OW15065   4.496   7.452  10.393
 4353SOL    HW115066   4.467   7.372  10.348
 4353SOL    HW215067   4.439   7.458  10.469
 4354SOL     OW15068   3.013   7.144  10.781
 4354SOL    HW115069   3.068   7.184  10.714
 4354SOL    HW215070   2.975   7.218  10.828
 4355SOL     OW15071   6.093   4.675   4.964
 4355SOL    HW115072   6.092   4.719   4.879
 4355SOL    HW215073   6.076   4.744   5.027
 4356SOL     OW15074   1.554   6.405   5.042
 4356SOL    HW115075   1.590   6.483   5.084
 4356SOL    HW215076   1.631   6.350   5.025
 4357SOL     OW15077   3.067   3.779   4.334
 4357SOL    HW115078   3.076   3.776   4.238
 4357SOL    HW215079   3.147   3.822   4.364
 4358SOL     OW15080  10.578   6.425   5.226
 4358SOL    HW115081  10.532   6.465   5.152
 4358SOL    HW215082  10.513   6.421   5.296
 4359SOL     OW15083   0.442   6.185  10.610
 4359SOL    HW115084   0.502   6.258  10.594
 4359SOL    HW215085   0.358   6.226  10.627
 4360SOL     OW15086   0.855  10.223   4.721
 4360SOL    HW115087   0.780  10.252   4.772
 4360SOL    HW215088   0.923  10.288   4.738
 4361SOL     OW15089  10.679   0.440   2.616
 4361SOL    HW115090  10.701   0.492   2.539
 4361SOL    HW215091  10.749   0.374   2.621
 4362SOL     OW15092   9.069   5.681   9.553
 4362SOL    HW115093   9.143   5.649   9.502
 4362SOL    HW215094   9.004   5.707   9.487
 4363SOL     OW15095  10.945   0.743   2.477
 4363SOL    HW115096  10.950   0.719   2.569
 4363SOL    HW215097  11.023   0.796   2.462
 4364SOL     OW15098   6.020   8.257   1.130
 4364SOL    HW115099   6.005   8.345   1.096
 4364SOL    HW215100   6.039   8.204   1.052
 4365SOL     OW15101   4.796   4.166   7.101
 4365SOL    HW115102   4.750   4.166   7.017
 4365SOL    HW215103   4.852   4.088   7.097
 4366SOL     OW15104   7.586   2.204  10.707
 4366SOL    HW115105   7.642   2.166  10.639
 4366SOL    HW215106   7.499   2.167  10.690
 4367SOL     OW15107   1.187  10.550   3.147
 4367SOL    HW115108   1.231  10.473   3.183
 4367SOL    HW215109   1.246  10.580   3.077
 4368SOL     OW15110   2.419   7.277  10.699
 4368SOL    HW115111   2.350   7.231  10.651
 4368SOL    HW215112   2.479   7.207  10.726
 4369SOL     OW15113  10.645   1.056  10.247
 4369SOL    HW115114  10.735   1.088  10.251
 4369SOL    HW215115  10.635   1.025  10.157
 4370SOL     OW15116   2.303   6.197   3.803
 4370SOL    HW115117   2.365   6.196   3.876
 4370SOL    HW215118   2.304   6.107   3.769
 4371SOL     OW15119  10.749   7.257   9.970
 4371SOL    HW115120  10.814   7.286  10.034
 4371SOL    HW215121  10.784   7.285   9.885
 4372SOL     OW15122  11.032   2.960   9.609
 4372SOL    HW115123  11.019   3.055   9.611
 4372SOL    HW215124  11.120   2.947   9.645
 4373SOL     OW15125   2.964   0.157   1.258
 4373SOL    HW115126   2.986   0.202   1.177
 4373SOL    HW215127   2.959   0.064   1.233
 4374SOL     OW15128   1.433   3.863   4.195
 4374SOL    HW115129   1.454   3.946   4.152
 4374SOL    HW215130   1.431   3.799   4.124
 4375SOL     OW15131   0.025   2.594   6.496
 4375SOL    HW115132   0.053   2.528   6.559
 4375SOL    HW215133  -0.010   2.665   6.549
 4376SOL     OW15134   6.173   0.825   0.301
 4376SOL    HW115135   6.246   0.789   0.251
 4376SOL    HW215136   6.118   0.868   0.235
 4377SOL     OW15137   9.654   4.537   5.249
 4377SOL    HW115138   9.697   4.560   5.166
 4377SOL    HW215139   9.616   4.619   5.280
 4378SOL     OW15140   7.687   5.926   5.642
 4378SOL    HW115141   7.595   5.925   5.614
 4378SOL    HW215142   7.729   5.990   5.584
 4379SOL     OW15143   3.681   0.381   6.433
 4379SOL    HW115144   3.607   0.327   6.405
 4379SOL    HW215145   3.755   0.347   6.383
 4380SOL     OW15146   7.270   3.505   3.840
 4380SOL    HW115147   7.287   3.534   3.929
 4380SOL    HW215148   7.229   3.419   3.850
 4381SOL     OW15149   4.060   1.937   7.142
 4381SOL    HW115150   4.091   2.011   7.194
 4381SOL    HW215151   4.092   1.954   7.053
 4382SOL     OW15152   9.023   7.086   4.384
 4382SOL    HW115153   8.951   7.023   4.386
 4382SOL    HW215154   9.098   7.038   4.420
 4383SOL     OW15155   1.588   0.298   0.709
 4383SOL    HW115156   1.675   0.265   0.686
 4383SOL    HW215157   1.559   0.241   0.780
 4384SOL     OW15158   8.066   8.774   9.608
 4384SOL    HW115159   8.071   8.863   9.642
 4384SOL    HW215160   7.996   8.777   9.542
 4385SOL     OW15161   2.997   5.925   4.377
 4385SOL    HW115162   3.087   5.956   4.384
 4385SOL    HW215163   2.992   5.851   4.438
 4386SOL     OW15164   3.926   4.922   0.078
 4386SOL    HW115165   3.994   4.973   0.122
 4386SOL    HW215166   3.915   4.965  -0.007
 4387SOL     OW15167   5.946   9.493   0.638
 4387SOL    HW115168   5.861   9.523   0.669
 4387SOL    HW215169   5.957   9.407   0.678
 4388SOL     OW15170   5.798   4.571   0.602
 4388SOL    HW115171   5.817   4.574   0.508
 4388SOL    HW215172   5.765   4.658   0.622
 4389SOL     OW15173   1.331   1.132   5.031
 4389SOL    HW115174   1.261   1.069   5.048
 4389SOL    HW215175   1.294   1.216   5.056
 4390SOL     OW15176   4.903   8.014   4.116
 4390SOL    HW115177   4.862   7.938   4.073
 4390SOL    HW215178   4.982   8.030   4.064
 4391SOL     OW15179  10.968   6.745   0.820
 4391SOL    HW115180  10.968   6.781   0.908
 4391SOL    HW215181  10.985   6.651   0.832
 4392SOL     OW15182   3.472   4.176   3.156
 4392SOL    HW115183   3.453   4.227   3.234
 4392SOL    HW215184   3.560   4.141   3.171
 4393SOL     OW15185   4.792   1.333   5.697
 4393SOL    HW115186   4.828   1.274   5.764
 4393SOL    HW215187   4.814   1.290   5.614
 4394SOL     OW15188  10.223   9.870   6.533
 4394SOL    HW115189  10.176   9.933   6.479
 4394SOL    HW215190  10.228   9.911   6.619
 4395SOL     OW15191   6.086  10.663   5.121
 4395SOL    HW115192   6.049  10.577   5.104
 4395SOL    HW215193   6.179  10.646   5.138
 4396SOL     OW15194   7.632   7.300   3.729
 4396SOL    HW115195   7.574   7.334   3.797
 4396SOL    HW215196   7.574   7.249   3.671
 4397SOL     OW15197   9.468   2.570   8.852
 4397SOL    HW115198   9.377   2.597   8.857
 4397SOL    HW215199   9.511   2.639   8.802
 4398SOL     OW15200   2.356   7.573   8.385
 4398SOL    HW115201   2.396   7.548   8.468
 4398SOL    HW215202   2.425   7.559   8.319
 4399SOL     OW15203   5.407   7.606   1.579
 4399SOL    HW115204   5.330   7.603   1.635
 4399SOL    HW215205   5.442   7.517   1.582
 4400SOL     OW15206   4.015   9.222   6.095
 4400SOL    HW115207   4.091   9.180   6.054
 4400SOL    HW215208   4.052   9.295   6.144
 4401SOL     OW15209   7.238   4.882  10.509
 4401SOL    HW115210   7.199   4.845  10.429
 4401SOL    HW215211   7.332   4.863  10.500
 4402SOL     OW15212  10.231   6.456   9.334
 4402SOL    HW115213  10.313   6.434   9.288
 4402SOL    HW215214  10.200   6.536   9.291
 4403SOL     OW15215   8.248   0.300   2.591
 4403SOL    HW115216   8.207   0.375   2.633
 4403SOL    HW215217   8.274   0.243   2.663
 4404SOL     OW15218   4.146   6.330   5.917
 4404SOL    HW115219   4.125   6.409   5.867
 4404SOL    HW215220   4.236   6.308   5.891
 4405SOL     OW15221   2.484   6.219  10.999
 4405SOL    HW115222   2.463   6.283  11.066
 4405SOL    HW215223   2.433   6.246  10.922
 4406SOL     OW15224   3.715   9.971   7.071
 4406SOL    HW115225   3.729   9.881   7.100
 4406SOL    HW215226   3.692  10.018   7.150
 4407SOL     OW15227   1.592   5.458   0.808
 4407SOL    HW115228   1.606   5.458   0.713
 4407SOL    HW215229   1.512   5.509   0.820
 4408SOL     OW15230   2.936   6.945   2.399
 4408SOL    HW115231   2.878   7.016   2.424
 4408SOL    HW215232   2.899   6.867   2.441
 4409SOL     OW15233   5.214   3.781  10.717
 4409SOL    HW115234   5.158   3.829  10.777
 4409SOL    HW215235   5.170   3.789  10.632
 4410SOL     OW15236   3.448   3.714   4.165
 4410SOL    HW115237   3.373   3.657   4.148
 4410SOL    HW215238   3.492   3.722   4.080
 4411SOL     OW15239   0.496   8.944   0.838
 4411SOL    HW115240   0.454   8.874   0.787
 4411SOL    HW215241   0.581   8.907   0.863
 4412SOL     OW15242   5.287   6.455   6.974
 4412SOL    HW115243   5.350   6.385   6.993
 4412SOL    HW215244   5.281   6.505   7.055
 4413SOL     OW15245   3.672   3.884   1.619
 4413SOL    HW115246   3.735   3.830   1.571
 4413SOL    HW215247   3.687   3.861   1.711
 4414SOL     OW15248   2.053   7.039   6.008
 4414SOL    HW115249   2.081   7.031   6.099
 4414SOL    HW215250   2.116   6.986   5.959
 4415SOL     OW15251   1.636   5.865   9.763
 4415SOL    HW115252   1.719   5.880   9.809
 4415SOL    HW215253   1.651   5.785   9.713
 4416SOL     OW15254  10.148   2.225  10.262
 4416SOL    HW115255  10.242   2.206  10.265
 4416SOL    HW215256  10.106   2.144  10.291
 4417SOL     OW15257   6.405   8.613   3.004
 4417SOL    HW115258   6.392   8.621   2.909
 4417SOL    HW215259   6.428   8.701   3.033
 4418SOL     OW15260   6.247   0.137   2.866
 4418SOL    HW115261   6.291   0.141   2.951
 4418SOL    HW215262   6.319   0.132   2.802
 4419SOL     OW15263  10.782   6.264   9.326
 4419SOL    HW115264  10.815   6.314   9.251
 4419SOL    HW215265  10.727   6.196   9.287
 4420SOL     OW15266   0.543   9.944   8.207
 4420SOL    HW115267   0.541   9.964   8.113
 4420SOL    HW215268   0.623   9.893   8.218
 4421SOL     OW15269   9.844  10.084   8.234
 4421SOL    HW115270   9.832  10.157   8.173
 4421SOL    HW215271   9.851  10.125   8.320
 4422SOL     OW15272   2.854   6.471   9.806
 4422SOL    HW115273   2.948   6.488   9.817
 4422SOL    HW215274   2.830   6.417   9.881
 4423SOL     OW15275   1.987   6.416  11.013
 4423SOL    HW115276   1.936   6.416  10.932
 4423SOL    HW215277   2.029   6.330  11.015
 4424SOL     OW15278   9.535   9.055   1.602
 4424SOL    HW115279   9.599   9.049   1.673
 4424SOL    HW215280   9.522   8.964   1.574
 4425SOL     OW15281   6.532   2.507   4.729
 4425SOL    HW115282   6.564   2.543   4.812
 4425SOL    HW215283   6.611   2.497   4.675
 4426SOL     OW15284   8.992   8.264   0.455
 4426SOL    HW115285   9.064   8.327   0.461
 4426SOL    HW215286   8.913   8.315   0.472
 4427SOL     OW15287   4.492   3.651   5.717
 4427SOL    HW115288   4.527   3.585   5.656
 4427SOL    HW215289   4.408   3.615   5.745
 4428SOL     OW15290   0.161   6.484   3.135
 4428SOL    HW115291   0.089   6.421   3.131
 4428SOL    HW215292   0.239   6.429   3.143
 4429SOL     OW15293   0.069   8.838   6.177
 4429SOL    HW115294   0.028   8.807   6.096
 4429SOL    HW215295   0.159   8.805   6.173
 4430SOL     OW15296   3.998   7.201   9.906
 4430SOL    HW115297   4.062   7.258   9.949
 4430SOL    HW215298   3.951   7.159   9.978
 4431SOL     OW15299   3.331   2.415  10.185
 4431SOL    HW115300   3.336   2.370  10.100
 4431SOL    HW215301   3.327   2.508  10.162
 4432SOL     OW15302   7.551   0.422   5.499
 4432SOL    HW115303   7.639   0.387   5.482
 4432SOL    HW215304   7.497   0.344   5.514
 4433SOL     OW15305   2.853   7.459   7.724
 4433SOL    HW115306   2.900   7.400   7.665
 4433SOL    HW215307   2.852   7.543   7.678
 4434SOL     OW15308   0.419   2.246   4.282
 4434SOL    HW115309   0.455   2.303   4.350
 4434SOL    HW215310   0.478   2.170   4.280
 4435SOL     OW15311   7.610   2.520   6.180
 4435SOL    HW115312   7.617   2.425   6.191
 4435SOL    HW215313   7.520   2.534   6.152
 4436SOL     OW15314   8.466   6.622   5.095
 4436SOL    HW115315   8.495   6.623   5.003
 4436SOL    HW215316   8.372   6.640   5.090
 4437SOL     OW15317   2.978  10.881   6.575
 4437SOL    HW115318   2.885  10.859   6.584
 4437SOL    HW215319   2.992  10.954   6.635
 4438SOL     OW15320   5.041   8.936   6.079
 4438SOL    HW115321   5.056   9.020   6.035
 4438SOL    HW215322   5.061   8.952   6.171
 4439SOL     OW15323   1.520   6.750   0.670
 4439SOL    HW115324   1.545   6.842   0.677
 4439SOL    HW215325   1.548   6.711   0.753
 4440SOL     OW15326  10.820   3.839   8.654
 4440SOL    HW115327  10.773   3.917   8.684
 4440SOL    HW215328  10.825   3.782   8.731
 4441SOL     OW15329   1.997   7.066   6.318
 4441SOL    HW115330   1.976   7.158   6.305
 4441SOL    HW215331   1.916   7.026   6.350
 4442SOL     OW15332   9.840   6.537   8.790
 4442SOL    HW115333   9.772   6.564   8.852
 4442SOL    HW215334   9.900   6.611   8.787
 4443SOL     OW15335   2.415   5.554   9.219
 4443SOL    HW115336   2.440   5.484   9.279
 4443SOL    HW215337   2.497   5.577   9.174
 4444SOL     OW15338   9.318   3.546   4.080
 4444SOL    HW115339   9.400   3.506   4.110
 4444SOL    HW215340   9.345   3.626   4.035
 4445SOL     OW15341   4.042   8.447   8.597
 4445SOL    HW115342   3.950   8.473   8.604
 4445SOL    HW215343   4.048   8.404   8.511
 4446SOL     OW15344   9.234   8.285   5.518
 4446SOL    HW115345   9.275   8.230   5.450
 4446SOL    HW215346   9.276   8.257   5.599
 4447SOL     OW15347   0.423   7.700  10.696
 4447SOL    HW115348   0.337   7.679  10.733
 4447SOL    HW215349   0.409   7.698  10.601
 4448SOL     OW15350   3.637  10.423   3.682
 4448SOL    HW115351   3.608  10.482   3.751
 4448SOL    HW215352   3.621  10.335   3.717
 4449SOL     OW15353   2.892   5.808   1.015
 4449SOL    HW115354   2.903   5.725   1.061
 4449SOL    HW215355   2.923   5.790   0.926
 4450SOL     OW15356   2.111   0.808  10.428
 4450SOL    HW115357   2.174   0.770  10.367
 4450SOL    HW215358   2.060   0.733  10.459
 4451SOL     OW15359   7.023   6.550   5.361
 4451SOL    HW115360   7.035   6.477   5.300
 4451SOL    HW215361   6.978   6.511   5.436
 4452SOL     OW15362   4.599   2.993   6.956
 4452SOL    HW115363   4.661   3.064   6.969
 4452SOL    HW215364   4.593   2.983   6.861
 4453SOL     OW15365   2.181   1.657   1.059
 4453SOL    HW115366   2.162   1.613   1.142
 4453SOL    HW215367   2.204   1.586   0.999
 4454SOL     OW15368   1.701   5.710   6.997
 4454SOL    HW115369   1.653   5.665   6.927
 4454SOL    HW215370   1.663   5.676   7.078
 4455SOL     OW15371   2.083   5.037   0.256
 4455SOL    HW115372   2.059   5.080   0.174
 4455SOL    HW215373   2.145   4.969   0.229
 4456SOL     OW15374   4.456   6.533   7.466
 4456SOL    HW115375   4.463   6.600   7.398
 4456SOL    HW215376   4.460   6.450   7.418
 4457SOL     OW15377  10.914   7.468   0.812
 4457SOL    HW115378  10.870   7.550   0.790
 4457SOL    HW215379  10.856   7.425   0.874
 4458SOL     OW15380   3.666   8.620   6.922
 4458SOL    HW115381   3.678   8.712   6.944
 4458SOL    HW215382   3.721   8.572   6.984
 4459SOL     OW15383   4.379   1.856   5.389
 4459SOL    HW115384   4.319   1.924   5.419
 4459SOL    HW215385   4.395   1.802   5.466
 4460SOL     OW15386   4.760   4.084   8.546
 4460SOL    HW115387   4.772   4.032   8.466
 4460SOL    HW215388   4.816   4.160   8.533
 4461SOL     OW15389   5.338   8.392   0.253
 4461SOL    HW115390   5.254   8.362   0.289
 4461SOL    HW215391   5.323   8.483   0.228
 4462SOL     OW15392   1.561   4.768   1.169
 4462SOL    HW115393   1.527   4.779   1.257
 4462SOL    HW215394   1.553   4.854   1.128
 4463SOL     OW15395   3.871   2.770   2.151
 4463SOL    HW115396   3.949   2.819   2.125
 4463SOL    HW215397   3.806   2.791   2.084
 4464SOL     OW15398   5.744   6.309   8.916
 4464SOL    HW115399   5.734   6.240   8.981
 4464SOL    HW215400   5.838   6.329   8.916
 4465SOL     OW15401   0.163   0.162   2.403
 4465SOL    HW115402   0.103   0.090   2.382
 4465SOL    HW215403   0.175   0.208   2.320
 4466SOL     OW15404   9.355   4.005   7.457
 4466SOL    HW115405   9.321   3.980   7.371
 4466SOL    HW215406   9.447   4.028   7.441
 4467SOL     OW15407   0.085   7.428   4.318
 4467SOL    HW115408   0.116   7.463   4.401
 4467SOL    HW215409   0.161   7.386   4.279
 4468SOL     OW15410   3.748   4.523   4.388
 4468SOL    HW115411   3.807   4.500   4.316
 4468SOL    HW215412   3.669   4.556   4.344
 4469SOL     OW15413   2.301   5.218   9.189
 4469SOL    HW115414   2.236   5.155   9.219
 4469SOL    HW215415   2.361   5.229   9.263
 4470SOL     OW15416   5.486   2.829   7.964
 4470SOL    HW115417   5.461   2.887   7.892
 4470SOL    HW215418   5.445   2.867   8.041
 4471SOL     OW15419   3.434   6.323   4.454
 4471SOL    HW115420   3.351   6.363   4.429
 4471SOL    HW215421   3.416   6.279   4.537
 4472SOL     OW15422   8.173   1.232  10.322
 4472SOL    HW115423   8.267   1.249  10.324
 4472SOL    HW215424   8.163   1.145  10.361
 4473SOL     OW15425   0.007   6.336   9.244
 4473SOL    HW115426   0.085   6.281   9.235
 4473SOL    HW215427  -0.043   6.320   9.164
 4474SOL     OW15428  10.910   3.129   6.327
 4474SOL    HW115429  10.924   3.223   6.322
 4474SOL    HW215430  10.821   3.116   6.295
 4475SOL     OW15431   0.264   7.617   0.931
 4475SOL    HW115432   0.206   7.556   0.977
 4475SOL    HW215433   0.275   7.578   0.844
 4476SOL     OW15434   0.013   0.659  10.243
 4476SOL    HW115435  -0.033   0.713  10.307
 4476SOL    HW215436   0.100   0.645  10.279
 4477SOL     OW15437   4.664   1.459   5.231
 4477SOL    HW115438   4.655   1.457   5.326
 4477SOL    HW215439   4.755   1.486   5.216
 4478SOL     OW15440  10.473   1.028   4.078
 4478SOL    HW115441  10.473   1.103   4.137
 4478SOL    HW215442  10.431   1.060   3.998
 4479SOL     OW15443   3.059   5.603   4.923
 4479SOL    HW115444   3.137   5.591   4.977
 4479SOL    HW215445   2.992   5.550   4.966
 4480SOL     OW15446   5.922  10.452   3.158
 4480SOL    HW115447   5.934  10.387   3.089
 4480SOL    HW215448   5.957  10.533   3.120
 4481SOL     OW15449   6.697  10.633   7.343
 4481SOL    HW115450   6.635  10.566   7.314
 4481SOL    HW215451   6.663  10.664   7.427
 4482SOL     OW15452   7.242   3.271   7.151
 4482SOL    HW115453   7.205   3.359   7.159
 4482SOL    HW215454   7.269   3.265   7.059
 4483SOL     OW15455   2.001   7.216   1.921
 4483SOL    HW115456   2.010   7.122   1.938
 4483SOL    HW215457   1.920   7.223   1.871
 4484SOL     OW15458   9.327   3.245   7.686
 4484SOL    HW115459   9.297   3.335   7.695
 4484SOL    HW215460   9.273   3.208   7.616
 4485SOL     OW15461   4.748  10.256   9.459
 4485SOL    HW115462   4.688  10.204   9.512
 4485SOL    HW215463   4.786  10.319   9.520
 4486SOL     OW15464   3.288   9.785   1.821
 4486SOL    HW115465   3.200   9.809   1.849
 4486SOL    HW215466   3.307   9.704   1.868
 4487SOL     OW15467   5.839   3.317   5.647
 4487SOL    HW115468   5.867   3.334   5.737
 4487SOL    HW215469   5.869   3.393   5.597
 4488SOL     OW15470   0.822   2.357   4.634
 4488SOL    HW115471   0.873   2.327   4.709
 4488SOL    HW215472   0.773   2.432   4.667
 4489SOL     OW15473   6.897   1.561   6.683
 4489SOL    HW115474   6.816   1.587   6.727
 4489SOL    HW215475   6.956   1.535   6.754
 4490SOL     OW15476   4.252   4.995   0.324
 4490SOL    HW115477   4.305   4.996   0.244
 4490SOL    HW215478   4.221   4.904   0.330
 4491SOL     OW15479  11.046   2.674   0.928
 4491SOL    HW115480  11.012   2.691   0.840
 4491SOL    HW215481  11.118   2.736   0.938
 4492SOL     OW15482   7.064   1.099   7.898
 4492SOL    HW115483   7.058   1.014   7.854
 4492SOL    HW215484   6.973   1.127   7.910
 4493SOL     OW15485   4.037   9.975   8.369
 4493SOL    HW115486   4.051   9.882   8.351
 4493SOL    HW215487   4.107   9.998   8.430
 4494SOL     OW15488   6.793   1.653  10.644
 4494SOL    HW115489   6.736   1.616  10.576
 4494SOL    HW215490   6.867   1.592  10.649
 4495SOL     OW15491   3.302   8.132   5.096
 4495SOL    HW115492   3.349   8.120   5.178
 4495SOL    HW215493   3.280   8.225   5.094
 4496SOL     OW15494   0.861   6.845   6.415
 4496SOL    HW115495   0.858   6.823   6.508
 4496SOL    HW215496   0.854   6.760   6.370
 4497SOL     OW15497   9.383  10.184   5.139
 4497SOL    HW115498   9.474  10.214   5.145
 4497SOL    HW215499   9.357  10.165   5.229
 4498SOL     OW15500   2.352   3.565  10.697
 4498SOL    HW115501   2.423   3.573  10.761
 4498SOL    HW215502   2.332   3.655  10.672
 4499SOL     OW15503   5.844   9.136  10.005
 4499SOL    HW115504   5.903   9.178   9.942
 4499SOL    HW215505   5.903   9.097  10.070
 4500SOL     OW15506   4.104   4.123   8.365
 4500SOL    HW115507   4.055   4.190   8.317
 4500SOL    HW215508   4.152   4.075   8.297
 4501SOL     OW15509   3.945   4.972   9.737
 4501SOL    HW115510   3.891   5.049   9.750
 4501SOL    HW215511   3.890   4.899   9.764
 4502SOL     OW15512   0.559   0.519   3.589
 4502SOL    HW115513   0.526   0.558   3.669
 4502SOL    HW215514   0.493   0.454   3.564
 4503SOL     OW15515   7.639   8.113   5.205
 4503SOL    HW115516   7.677   8.182   5.259
 4503SOL    HW215517   7.693   8.036   5.223
 4504SOL     OW15518   5.365   1.137   3.162
 4504SOL    HW115519   5.303   1.164   3.229
 4504SOL    HW215520   5.373   1.213   3.105
 4505SOL     OW15521   2.719   0.128   5.305
 4505SOL    HW115522   2.626   0.139   5.287
 4505SOL    HW215523   2.724   0.045   5.353
 4506SOL     OW15524   0.006   3.026   7.251
 4506SOL    HW115525  -0.042   2.947   7.224
 4506SOL    HW215526   0.089   3.019   7.204
 4507SOL     OW15527   0.953   4.753  10.045
 4507SOL    HW115528   0.873   4.803  10.061
 4507SOL    HW215529   1.022   4.802  10.090
 4508SOL     OW15530   4.222  10.884   8.210
 4508SOL    HW115531   4.282  10.856   8.140
 4508SOL    HW215532   4.277  10.934   8.270
 4509SOL     OW15533   4.386   6.761   7.254
 4509SOL    HW115534   4.310   6.710   7.225
 4509SOL    HW215535   4.393   6.832   7.191
 4510SOL     OW15536  10.514   2.811   0.453
 4510SOL    HW115537  10.464   2.888   0.478
 4510SOL    HW215538  10.448   2.744   0.435
 4511SOL     OW15539   1.117   6.973   9.044
 4511SOL    HW115540   1.167   7.003   9.120
 4511SOL    HW215541   1.131   7.041   8.978
 4512SOL     OW15542   8.381   2.923   7.660
 4512SOL    HW115543   8.374   2.835   7.622
 4512SOL    HW215544   8.398   2.980   7.585
 4513SOL     OW15545   1.252   3.586   1.831
 4513SOL    HW115546   1.325   3.581   1.893
 4513SOL    HW215547   1.182   3.534   1.871
 4514SOL     OW15548   8.312   8.192   1.924
 4514SOL    HW115549   8.356   8.256   1.979
 4514SOL    HW215550   8.339   8.214   1.835
 4515SOL     OW15551   5.035   9.467   3.197
 4515SOL    HW115552   5.049   9.510   3.281
 4515SOL    HW215553   5.114   9.415   3.183
 4516SOL     OW15554   1.317   8.980   5.374
 4516SOL    HW115555   1.345   9.011   5.288
 4516SOL    HW215556   1.254   9.045   5.404
 4517SOL     OW15557   4.095   1.835   5.607
 4517SOL    HW115558   4.156   1.908   5.616
 4517SOL    HW215559   4.028   1.867   5.547
 4518SOL     OW15560   3.301  10.468   0.159
 4518SOL    HW115561   3.381  10.417   0.174
 4518SOL    HW215562   3.242  10.439   0.229
 4519SOL     OW15563   3.837   0.539   5.044
 4519SOL    HW115564   3.774   0.602   5.010
 4519SOL    HW215565   3.795   0.502   5.121
 4520SOL     OW15566   4.682   6.061   6.477
 4520SOL    HW115567   4.630   6.082   6.554
 4520SOL    HW215568   4.654   5.973   6.452
 4521SOL     OW15569   7.647   6.852   2.419
 4521SOL    HW115570   7.590   6.775   2.410
 4521SOL    HW215571   7.706   6.847   2.344
 4522SOL     OW15572   2.096   7.703   8.350
 4522SOL    HW115573   2.166   7.655   8.395
 4522SOL    HW215574   2.126   7.794   8.350
 4523SOL     OW15575   9.873   4.109   6.103
 4523SOL    HW115576   9.917   4.167   6.041
 4523SOL    HW215577   9.805   4.163   6.143
 4524SOL     OW15578   8.723   1.400   8.794
 4524SOL    HW115579   8.713   1.392   8.699
 4524SOL    HW215580   8.640   1.369   8.829
 4525SOL     OW15581   8.372   0.446   5.382
 4525SOL    HW115582   8.466   0.465   5.382
 4525SOL    HW215583   8.362   0.375   5.445
 4526SOL     OW15584  11.053  10.303   2.806
 4526SOL    HW115585  11.001  10.381   2.789
 4526SOL    HW215586  11.062  10.261   2.720
 4527SOL     OW15587   6.707   6.928  10.254
 4527SOL    HW115588   6.701   6.933  10.158
 4527SOL    HW215589   6.749   7.010  10.280
 4528SOL     OW15590   1.736   5.840   7.263
 4528SOL    HW115591   1.688   5.773   7.214
 4528SOL    HW215592   1.674   5.912   7.271
 4529SOL     OW15593   9.842   4.230   4.941
 4529SOL    HW115594   9.781   4.170   4.897
 4529SOL    HW215595   9.816   4.317   4.911
 4530SOL     OW15596   8.423   1.275   3.440
 4530SOL    HW115597   8.460   1.296   3.354
 4530SOL    HW215598   8.359   1.206   3.422
 4531SOL     OW15599   2.319   4.382   5.948
 4531SOL    HW115600   2.397   4.424   5.910
 4531SOL    HW215601   2.318   4.295   5.908
 4532SOL     OW15602   1.486   5.235   9.540
 4532SOL    HW115603   1.427   5.279   9.601
 4532SOL    HW215604   1.535   5.173   9.594
 4533SOL     OW15605   1.347   2.532   4.077
 4533SOL    HW115606   1.319   2.454   4.126
 4533SOL    HW215607   1.403   2.580   4.138
 4534SOL     OW15608   4.675   5.399   4.808
 4534SOL    HW115609   4.605   5.403   4.872
 4534SOL    HW215610   4.738   5.465   4.837
 4535SOL     OW15611   5.453   6.773   4.866
 4535SOL    HW115612   5.501   6.754   4.946
 4535SOL    HW215613   5.363   6.746   4.884
 4536SOL     OW15614   2.171   7.823  10.147
 4536SOL    HW115615   2.178   7.863  10.060
 4536SOL    HW215616   2.091   7.771  10.143
 4537SOL     OW15617   0.886  10.482   3.331
 4537SOL    HW115618   0.804  10.511   3.370
 4537SOL    HW215619   0.860  10.423   3.260
 4538SOL     OW15620   3.400   4.491   5.261
 4538SOL    HW115621   3.343   4.562   5.232
 4538SOL    HW215622   3.486   4.511   5.222
 4539SOL     OW15623   8.945   3.338   6.298
 4539SOL    HW115624   8.946   3.313   6.390
 4539SOL    HW215625   8.931   3.432   6.299
 4540SOL     OW15626   4.841   5.142   8.953
 4540SOL    HW115627   4.845   5.120   9.046
 4540SOL    HW215628   4.929   5.124   8.920
 4541SOL     OW15629   5.023   2.087   0.315
 4541SOL    HW115630   5.056   2.036   0.240
 4541SOL    HW215631   5.083   2.161   0.321
 4542SOL     OW15632   1.839   6.253   7.984
 4542SOL    HW115633   1.862   6.218   8.070
 4542SOL    HW215634   1.881   6.193   7.922
 4543SOL     OW15635   8.168   7.107   3.403
 4543SOL    HW115636   8.234   7.171   3.377
 4543SOL    HW215637   8.118   7.091   3.323
 4544SOL     OW15638   8.320   9.454   4.960
 4544SOL    HW115639   8.382   9.527   4.961
 4544SOL    HW215640   8.275   9.462   4.876
 4545SOL     OW15641   2.310   8.625   1.869
 4545SOL    HW115642   2.332   8.562   1.938
 4545SOL    HW215643   2.363   8.596   1.794
 4546SOL     OW15644   3.335   4.032   7.159
 4546SOL    HW115645   3.307   4.081   7.082
 4546SOL    HW215646   3.394   3.965   7.124
 4547SOL     OW15647   4.819   2.078   9.590
 4547SOL    HW115648   4.738   2.027   9.588
 4547SOL    HW215649   4.856   2.061   9.677
 4548SOL     OW15650   2.330   8.022   7.454
 4548SOL    HW115651   2.288   8.052   7.373
 4548SOL    HW215652   2.409   7.977   7.424
 4549SOL     OW15653   9.844  10.615   6.576
 4549SOL    HW115654   9.890  10.592   6.656
 4549SOL    HW215655   9.902  10.677   6.532
 4550SOL     OW15656   2.571   9.312   8.083
 4550SOL    HW115657   2.603   9.395   8.049
 4550SOL    HW215658   2.583   9.251   8.010
 4551SOL     OW15659   1.831   3.072   5.276
 4551SOL    HW115660   1.745   3.082   5.317
 4551SOL    HW215661   1.889   3.130   5.325
 4552SOL     OW15662   1.157   4.691   6.130
 4552SOL    HW115663   1.090   4.641   6.083
 4552SOL    HW215664   1.226   4.704   6.065
 4553SOL     OW15665   2.005  10.924   8.635
 4553SOL    HW115666   2.066  10.978   8.685
 4553SOL    HW215667   2.057  10.893   8.560
 4554SOL     OW15668  10.493  10.930   2.267
 4554SOL    HW115669  10.549  10.993   2.312
 4554SOL    HW215670  10.531  10.923   2.179
 4555SOL     OW15671   2.674   8.726   0.706
 4555SOL    HW115672   2.595   8.690   0.665
 4555SOL    HW215673   2.680   8.815   0.671
 4556SOL     OW15674   5.065   1.121   0.901
 4556SOL    HW115675   5.161   1.128   0.902
 4556SOL    HW215676   5.046   1.065   0.825
 4557SOL     OW15677   0.669   6.868   6.663
 4557SOL    HW115678   0.597   6.854   6.601
 4557SOL    HW215679   0.628   6.860   6.749
 4558SOL     OW15680   7.075   3.084   8.294
 4558SOL    HW115681   7.063   3.047   8.206
 4558SOL    HW215682   7.077   3.178   8.280
 4559SOL     OW15683   1.602   6.280   1.928
 4559SOL    HW115684   1.670   6.241   1.873
 4559SOL    HW215685   1.559   6.205   1.969
 4560SOL     OW15686  10.525   4.837   8.145
 4560SOL    HW115687  10.467   4.902   8.184
 4560SOL    HW215688  10.601   4.834   8.203
 4561SOL     OW15689   0.920   7.570   8.297
 4561SOL    HW115690   1.006   7.607   8.316
 4561SOL    HW215691   0.859   7.640   8.316
 4562SOL     OW15692   7.849   9.586   7.805
 4562SOL    HW115693   7.911   9.600   7.877
 4562SOL    HW215694   7.905   9.564   7.730
 4563SOL     OW15695   6.042   1.761   8.215
 4563SOL    HW115696   6.075   1.813   8.288
 4563SOL    HW215697   6.029   1.674   8.252
 4564SOL     OW15698   2.056   5.006   7.643
 4564SOL    HW115699   2.090   5.095   7.634
 4564SOL    HW215700   2.132   4.949   7.630
 4565SOL     OW15701   0.327   4.442   9.745
 4565SOL    HW115702   0.351   4.352   9.723
 4565SOL    HW215703   0.394   4.470   9.807
 4566SOL     OW15704   8.657   5.744   5.016
 4566SOL    HW115705   8.578   5.771   5.062
 4566SOL    HW215706   8.701   5.825   4.993
 4567SOL     OW15707  10.895   4.188   4.549
 4567SOL    HW115708  10.818   4.141   4.581
 4567SOL    HW215709  10.938   4.125   4.490
 4568SOL     OW15710   4.170   6.519   2.340
 4568SOL    HW115711   4.100   6.563   2.388
 4568SOL    HW215712   4.193   6.580   2.270
 4569SOL     OW15713   5.488   7.282   0.053
 4569SOL    HW115714   5.565   7.310   0.104
 4569SOL    HW215715   5.414   7.294   0.113
 4570SOL     OW15716   0.950   4.875   6.916
 4570SOL    HW115717   0.958   4.966   6.889
 4570SOL    HW215718   1.016   4.829   6.864
 4571SOL     OW15719   6.277   5.970   1.868
 4571SOL    HW115720   6.189   5.981   1.832
 4571SOL    HW215721   6.327   6.042   1.830
 4572SOL     OW15722   6.391   0.662   3.407
 4572SOL    HW115723   6.464   0.630   3.460
 4572SOL    HW215724   6.314   0.646   3.461
 4573SOL     OW15725   0.213   1.680  10.637
 4573SOL    HW115726   0.132   1.650  10.679
 4573SOL    HW215727   0.259   1.728  10.705
 4574SOL     OW15728   0.392   7.197   1.770
 4574SOL    HW115729   0.376   7.212   1.863
 4574SOL    HW215730   0.305   7.200   1.730
 4575SOL     OW15731   3.301   7.202   1.173
 4575SOL    HW115732   3.218   7.154   1.170
 4575SOL    HW215733   3.357   7.149   1.230
 4576SOL     OW15734   0.136   6.155   5.992
 4576SOL    HW115735   0.106   6.244   5.975
 4576SOL    HW215736   0.057   6.107   6.019
 4577SOL     OW15737   6.554   5.452   6.626
 4577SOL    HW115738   6.535   5.514   6.555
 4577SOL    HW215739   6.575   5.370   6.581
 4578SOL     OW15740   6.719   1.201   3.614
 4578SOL    HW115741   6.676   1.138   3.672
 4578SOL    HW215742   6.716   1.284   3.661
 4579SOL     OW15743   4.468   3.611   0.979
 4579SOL    HW115744   4.518   3.607   0.897
 4579SOL    HW215745   4.512   3.549   1.036
 4580SOL     OW15746   1.695   4.754   5.414
 4580SOL    HW115747   1.745   4.780   5.491
 4580SOL    HW215748   1.630   4.692   5.447
 4581SOL     OW15749   2.511   0.770   6.305
 4581SOL    HW115750   2.431   0.733   6.342
 4581SOL    HW215751   2.572   0.696   6.304
 4582SOL     OW15752   3.725   6.995   4.447
 4582SOL    HW115753   3.750   6.908   4.479
 4582SOL    HW215754   3.673   6.977   4.368
 4583SOL     OW15755   2.446  10.188   9.995
 4583SOL    HW115756   2.352  10.191   9.976
 4583SOL    HW215757   2.473  10.279   9.998
 4584SOL     OW15758   0.511   1.659   3.129
 4584SOL    HW115759   0.515   1.644   3.223
 4584SOL    HW215760   0.603   1.660   3.101
 4585SOL     OW15761   8.600   3.916   5.429
 4585SOL    HW115762   8.512   3.928   5.393
 4585SOL    HW215763   8.658   3.919   5.353
 4586SOL     OW15764   3.964   5.563   9.946
 4586SOL    HW115765   3.992   5.633   9.887
 4586SOL    HW215766   3.932   5.494   9.887
 4587SOL     OW15767  10.198   9.823   1.199
 4587SOL    HW115768  10.233   9.805   1.111
 4587SOL    HW215769  10.103   9.820   1.187
 4588SOL     OW15770   9.016   5.890   6.390
 4588SOL    HW115771   8.998   5.855   6.302
 4588SOL    HW215772   8.933   5.881   6.437
 4589SOL     OW15773   4.188  10.753   7.336
 4589SOL    HW115774   4.253  10.738   7.404
 4589SOL    HW215775   4.122  10.685   7.350
 4590SOL     OW15776  10.182  10.315   3.805
 4590SOL    HW115777  10.241  10.298   3.878
 4590SOL    HW215778  10.221  10.267   3.732
 4591SOL     OW15779   5.521   6.619   5.552
 4591SOL    HW115780   5.547   6.566   5.476
 4591SOL    HW215781   5.552   6.569   5.627
 4592SOL     OW15782   2.249   7.305   5.971
 4592SOL    HW115783   2.221   7.353   6.049
 4592SOL    HW215784   2.292   7.226   6.005
 4593SOL     OW15785   9.451  10.239   1.985
 4593SOL    HW115786   9.498  10.320   1.965
 4593SOL    HW215787   9.395  10.260   2.059
 4594SOL     OW15788   5.737   7.524   0.685
 4594SOL    HW115789   5.765   7.436   0.711
 4594SOL    HW215790   5.649   7.533   0.721
 4595SOL     OW15791   0.692   0.530   9.475
 4595SOL    HW115792   0.672   0.505   9.384
 4595SOL    HW215793   0.620   0.493   9.526
 4596SOL     OW15794   2.613   8.977   5.933
 4596SOL    HW115795   2.554   9.015   5.998
 4596SOL    HW215796   2.555   8.941   5.866
 4597SOL     OW15797   8.417   7.920   7.669
 4597SOL    HW115798   8.324   7.908   7.687
 4597SOL    HW215799   8.459   7.914   7.755
 4598SOL     OW15800   1.196  10.120   7.528
 4598SOL    HW115801   1.205  10.028   7.554
 4598SOL    HW215802   1.285  10.154   7.530
 4599SOL     OW15803   0.686   4.695   9.722
 4599SOL    HW115804   0.739   4.774   9.717
 4599SOL    HW215805   0.665   4.674   9.631
 4600SOL     OW15806   4.561   9.646   9.951
 4600SOL    HW115807   4.531   9.717   9.895
 4600SOL    HW215808   4.489   9.583   9.951
 4601SOL     OW15809   4.924   7.778   2.402
 4601SOL    HW115810   4.940   7.866   2.370
 4601SOL    HW215811   4.836   7.781   2.438
 4602SOL     OW15812   0.249   3.919   6.269
 4602SOL    HW115813   0.325   3.975   6.284
 4602SOL    HW215814   0.174   3.968   6.303
 4603SOL     OW15815   7.310   6.479   1.115
 4603SOL    HW115816   7.308   6.387   1.088
 4603SOL    HW215817   7.320   6.476   1.210
 4604SOL     OW15818   4.425   9.850   8.136
 4604SOL    HW115819   4.464   9.869   8.221
 4604SOL    HW215820   4.495   9.867   8.073
 4605SOL     OW15821   3.195   4.237   5.750
 4605SOL    HW115822   3.108   4.200   5.763
 4605SOL    HW215823   3.180   4.330   5.735
 4606SOL     OW15824   1.871   9.017   1.573
 4606SOL    HW115825   1.963   9.042   1.565
 4606SOL    HW215826   1.827   9.096   1.603
 4607SOL     OW15827   4.854  10.449   9.635
 4607SOL    HW115828   4.940  10.483   9.662
 4607SOL    HW215829   4.792  10.517   9.660
 4608SOL     OW15830   4.125   8.919   3.281
 4608SOL    HW115831   4.195   8.975   3.314
 4608SOL    HW215832   4.158   8.830   3.291
 4609SOL     OW15833   7.803   4.530   8.287
 4609SOL    HW115834   7.880   4.569   8.246
 4609SOL    HW215835   7.789   4.582   8.366
 4610SOL     OW15836   7.530   9.436   6.237
 4610SOL    HW115837   7.577   9.389   6.306
 4610SOL    HW215838   7.453   9.473   6.281
 4611SOL     OW15839   4.719   9.040   8.788
 4611SOL    HW115840   4.748   9.108   8.848
 4611SOL    HW215841   4.681   9.087   8.714
 4612SOL     OW15842  10.236   1.450   0.422
 4612SOL    HW115843  10.251   1.462   0.328
 4612SOL    HW215844  10.269   1.362   0.439
 4613SOL     OW15845   1.701   2.215   2.416
 4613SOL    HW115846   1.795   2.214   2.399
 4613SOL    HW215847   1.686   2.138   2.471
 4614SOL     OW15848   1.473   4.335   8.021
 4614SOL    HW115849   1.550   4.378   8.058
 4614SOL    HW215850   1.407   4.339   8.090
 4615SOL     OW15851   8.431   6.221   1.778
 4615SOL    HW115852   8.382   6.203   1.698
 4615SOL    HW215853   8.509   6.166   1.771
 4616SOL     OW15854   2.309   8.002  10.569
 4616SOL    HW115855   2.261   8.008  10.486
 4616SOL    HW215856   2.377   7.936  10.553
 4617SOL     OW15857  10.818   6.463   7.689
 4617SOL    HW115858  10.884   6.526   7.661
 4617SOL    HW215859  10.789   6.494   7.774
 4618SOL     OW15860   2.818   4.813   4.751
 4618SOL    HW115861   2.757   4.855   4.811
 4618SOL    HW215862   2.844   4.732   4.795
 4619SOL     OW15863   2.058  10.694   6.659
 4619SOL    HW115864   2.121  10.727   6.723
 4619SOL    HW215865   2.014  10.621   6.703
 4620SOL     OW15866   2.729   0.105   8.037
 4620SOL    HW115867   2.812   0.066   8.063
 4620SOL    HW215868   2.727   0.096   7.941
 4621SOL     OW15869   2.614   9.317  10.205
 4621SOL    HW115870   2.673   9.392  10.196
 4621SOL    HW215871   2.576   9.327  10.292
 4622SOL     OW15872   6.925   0.216   0.361
 4622SOL    HW115873   6.944   0.242   0.271
 4622SOL    HW215874   7.009   0.183   0.394
 4623SOL     OW15875   8.025   2.096  10.448
 4623SOL    HW115876   8.041   2.173  10.393
 4623SOL    HW215877   8.111   2.055  10.457
 4624SOL     OW15878  10.927  10.708   0.205
 4624SOL    HW115879  10.984  10.681   0.133
 4624SOL    HW215880  10.839  10.708   0.167
 4625SOL     OW15881   9.772   7.404   9.477
 4625SOL    HW115882   9.804   7.334   9.534
 4625SOL    HW215883   9.767   7.363   9.390
 4626SOL     OW15884   6.884   5.483   6.066
 4626SOL    HW115885   6.862   5.392   6.044
 4626SOL    HW215886   6.849   5.495   6.154
 4627SOL     OW15887   8.285   7.883   6.226
 4627SOL    HW115888   8.254   7.873   6.136
 4627SOL    HW215889   8.223   7.833   6.278
 4628SOL     OW15890   9.728   1.697   0.728
 4628SOL    HW115891   9.724   1.652   0.812
 4628SOL    HW215892   9.642   1.738   0.718
 4629SOL     OW15893   8.926   0.172   8.887
 4629SOL    HW115894   8.923   0.267   8.890
 4629SOL    HW215895   8.950   0.145   8.976
 4630SOL     OW15896  10.057   3.270   4.118
 4630SOL    HW115897   9.970   3.234   4.100
 4630SOL    HW215898  10.117   3.215   4.066
 4631SOL     OW15899   9.989   4.838   3.819
 4631SOL    HW115900  10.043   4.818   3.895
 4631SOL    HW215901   9.918   4.891   3.853
 4632SOL     OW15902   2.049   6.446   7.918
 4632SOL    HW115903   2.019   6.357   7.938
 4632SOL    HW215904   2.038   6.454   7.823
 4633SOL     OW15905   9.950   3.932   5.682
 4633SOL    HW115906   9.932   4.025   5.667
 4633SOL    HW215907   9.949   3.893   5.594
 4634SOL     OW15908  10.826   8.539   4.267
 4634SOL    HW115909  10.854   8.539   4.358
 4634SOL    HW215910  10.821   8.446   4.243
 4635SOL     OW15911   0.995   4.159   5.407
 4635SOL    HW115912   0.913   4.157   5.358
 4635SOL    HW215913   1.062   4.135   5.342
 4636SOL     OW15914   3.417   5.867   1.100
 4636SOL    HW115915   3.465   5.907   1.027
 4636SOL    HW215916   3.456   5.780   1.109
 4637SOL     OW15917   0.150   9.846   9.655
 4637SOL    HW115918   0.124   9.821   9.566
 4637SOL    HW215919   0.085   9.911   9.682
 4638SOL     OW15920   8.927   4.313   5.851
 4638SOL    HW115921   8.871   4.313   5.773
 4638SOL    HW215922   9.016   4.320   5.816
 4639SOL     OW15923   8.926   5.504   8.136
 4639SOL    HW115924   8.834   5.486   8.153
 4639SOL    HW215925   8.928   5.534   8.045
 4640SOL     OW15926   1.877   7.779   9.968
 4640SOL    HW115927   1.951   7.830   9.935
 4640SOL    HW215928   1.908   7.743  10.051
 4641SOL     OW15929   0.560   2.824   7.352
 4641SOL    HW115930   0.535   2.895   7.410
 4641SOL    HW215931   0.565   2.747   7.409
 4642SOL     OW15932   4.666   6.874   0.015
 4642SOL    HW115933   4.682   6.802   0.077
 4642SOL    HW215934   4.702   6.842  -0.068
 4643SOL     OW15935   4.833   4.344   8.302
 4643SOL    HW115936   4.778   4.398   8.358
 4643SOL    HW215937   4.787   4.342   8.218
 4644SOL     OW15938   9.490   9.973   6.608
 4644SOL    HW115939   9.528   9.892   6.572
 4644SOL    HW215940   9.543  10.043   6.570
 4645SOL     OW15941   8.077   2.613   6.981
 4645SOL    HW115942   8.043   2.647   7.063
 4645SOL    HW215943   8.110   2.690   6.935
 4646SOL     OW15944   2.474   4.800   4.926
 4646SOL    HW115945   2.459   4.788   5.019
 4646SOL    HW215946   2.529   4.878   4.920
 4647SOL     OW15947   9.515  11.014   4.338
 4647SOL    HW115948   9.439  11.056   4.298
 4647SOL    HW215949   9.485  10.926   4.361
 4648SOL     OW15950  10.942   0.934   6.934
 4648SOL    HW115951  10.849   0.938   6.957
 4648SOL    HW215952  10.951   0.996   6.861
 4649SOL     OW15953   0.987   8.226   8.599
 4649SOL    HW115954   0.901   8.220   8.558
 4649SOL    HW215955   1.018   8.135   8.602
 4650SOL     OW15956   2.928   6.819   4.918
 4650SOL    HW115957   3.005   6.850   4.965
 4650SOL    HW215958   2.862   6.806   4.985
 4651SOL     OW15959   6.897   7.156   8.954
 4651SOL    HW115960   6.927   7.104   9.028
 4651SOL    HW215961   6.900   7.095   8.880
 4652SOL     OW15962   3.167   1.583   8.972
 4652SOL    HW115963   3.162   1.641   9.047
 4652SOL    HW215964   3.077   1.577   8.940
 4653SOL     OW15965   1.772   8.672   7.098
 4653SOL    HW115966   1.857   8.659   7.056
 4653SOL    HW215967   1.735   8.584   7.104
 4654SOL     OW15968   4.104   1.287   2.092
 4654SOL    HW115969   4.155   1.248   2.163
 4654SOL    HW215970   4.123   1.232   2.016
 4655SOL     OW15971   2.376   6.160   6.449
 4655SOL    HW115972   2.445   6.157   6.382
 4655SOL    HW215973   2.295   6.142   6.400
 4656SOL     OW15974   4.215   0.518   5.723
 4656SOL    HW115975   4.257   0.604   5.722
 4656SOL    HW215976   4.139   0.527   5.666
 4657SOL     OW15977   3.942  10.809   8.154
 4657SOL    HW115978   3.942  10.748   8.080
 4657SOL    HW215979   4.030  10.848   8.152
 4658SOL     OW15980   3.622   9.548   7.036
 4658SOL    HW115981   3.590   9.458   7.038
 4658SOL    HW215982   3.579   9.587   6.960
 4659SOL     OW15983   7.035   4.238   1.105
 4659SOL    HW115984   7.049   4.308   1.169
 4659SOL    HW215985   6.961   4.268   1.052
 4660SOL     OW15986   0.168   7.493   3.845
 4660SOL    HW115987   0.108   7.431   3.886
 4660SOL    HW215988   0.226   7.438   3.792
 4661SOL     OW15989  10.400   6.186  11.099
 4661SOL    HW115990  10.415   6.168  11.006
 4661SOL    HW215991  10.309   6.160  11.114
 4662SOL     OW15992   3.550   6.558   3.274
 4662SOL    HW115993   3.484   6.617   3.238
 4662SOL    HW215994   3.529   6.551   3.367
 4663SOL     OW15995   4.626  10.525   5.258
 4663SOL    HW115996   4.650  10.496   5.170
 4663SOL    HW215997   4.569  10.456   5.291
 4664SOL     OW15998   2.279   2.275   2.195
 4664SOL    HW115999   2.304   2.182   2.196
 4664SOL    HW216000   2.185   2.274   2.176
 4665SOL     OW16001   2.638   3.005   4.645
 4665SOL    HW116002   2.636   3.096   4.674
 4665SOL    HW216003   2.658   2.954   4.724
 4666SOL     OW16004   9.288  10.317   9.525
 4666SOL    HW116005   9.313  10.365   9.446
 4666SOL    HW216006   9.216  10.367   9.563
 4667SOL     OW16007   4.420   6.661   9.038
 4667SOL    HW116008   4.514   6.656   9.021
 4667SOL    HW216009   4.391   6.738   8.990
 4668SOL     OW16010   6.299   4.826   1.894
 4668SOL    HW116011   6.347   4.806   1.813
 4668SOL    HW216012   6.254   4.744   1.916
 4669SOL     OW16013   9.826   5.403  10.165
 4669SOL    HW116014   9.808   5.309  10.152
 4669SOL    HW216015   9.861   5.409  10.254
 4670SOL     OW16016   1.342   1.331   8.738
 4670SOL    HW116017   1.254   1.368   8.742
 4670SOL    HW216018   1.345   1.267   8.809
 4671SOL     OW16019   5.243   4.651   9.334
 4671SOL    HW116020   5.164   4.700   9.354
 4671SOL    HW216021   5.212   4.570   9.292
 4672SOL     OW16022   3.839   5.878   1.618
 4672SOL    HW116023   3.746   5.894   1.605
 4672SOL    HW216024   3.858   5.913   1.705
 4673SOL     OW16025   0.949   4.463   9.510
 4673SOL    HW116026   0.901   4.406   9.449
 4673SOL    HW216027   0.934   4.424   9.596
 4674SOL     OW16028   7.469   7.253   9.437
 4674SOL    HW116029   7.486   7.277   9.528
 4674SOL    HW216030   7.555   7.229   9.402
 4675SOL     OW16031   9.808   5.514   2.998
 4675SOL    HW116032   9.835   5.470   3.078
 4675SOL    HW216033   9.782   5.443   2.939
 4676SOL     OW16034   1.694  10.234   1.630
 4676SOL    HW116035   1.677  10.140   1.623
 4676SOL    HW216036   1.656  10.270   1.550
 4677SOL     OW16037   1.944   0.552   2.880
 4677SOL    HW116038   2.017   0.610   2.858
 4677SOL    HW216039   1.939   0.554   2.975
 4678SOL     OW16040   2.974   1.333   8.036
 4678SOL    HW116041   2.959   1.424   8.011
 4678SOL    HW216042   2.889   1.303   8.069
 4679SOL     OW16043   3.620   0.586   9.275
 4679SOL    HW116044   3.617   0.541   9.190
 4679SOL    HW216045   3.699   0.551   9.317
 4680SOL     OW16046   6.712   5.221  10.505
 4680SOL    HW116047   6.650   5.182  10.443
 4680SOL    HW216048   6.730   5.308  10.470
 4681SOL     OW16049   0.192   6.391   5.677
 4681SOL    HW116050   0.208   6.484   5.665
 4681SOL    HW216051   0.160   6.361   5.592
 4682SOL     OW16052   3.323   6.722   3.153
 4682SOL    HW116053   3.284   6.761   3.231
 4682SOL    HW216054   3.250   6.679   3.107
 4683SOL     OW16055   0.961   6.946   3.342
 4683SOL    HW116056   0.942   6.894   3.420
 4683SOL    HW216057   1.052   6.925   3.321
 4684SOL     OW16058  10.479   3.422   5.884
 4684SOL    HW116059  10.511   3.332   5.879
 4684SOL    HW216060  10.446   3.441   5.796
 4685SOL     OW16061  10.999   5.781  10.703
 4685SOL    HW116062  10.935   5.723  10.661
 4685SOL    HW216063  11.052   5.722  10.757
 4686SOL     OW16064   9.228   2.885   4.772
 4686SOL    HW116065   9.254   2.911   4.683
 4686SOL    HW216066   9.307   2.847   4.810
 4687SOL     OW16067   4.095   7.383   0.727
 4687SOL    HW116068   4.127   7.456   0.780
 4687SOL    HW216069   4.113   7.409   0.636
 4688SOL     OW16070   0.368   5.116  10.172
 4688SOL    HW116071   0.370   5.067  10.089
 4688SOL    HW216072   0.455   5.154  10.179
 4689SOL     OW16073   3.061   5.927   6.346
 4689SOL    HW116074   3.067   5.933   6.441
 4689SOL    HW216075   3.152   5.913   6.317
 4690SOL     OW16076   2.057   7.280  10.750
 4690SOL    HW116077   1.966   7.257  10.766
 4690SOL    HW216078   2.091   7.304  10.836
 4691SOL     OW16079   0.709   2.363   4.992
 4691SOL    HW116080   0.775   2.369   5.061
 4691SOL    HW216081   0.694   2.269   4.981
 4692SOL     OW16082   1.539  10.809  11.092
 4692SOL    HW116083   1.519  10.736  11.150
 4692SOL    HW216084   1.590  10.770  11.021
 4693SOL     OW16085   3.614   1.559   5.174
 4693SOL    HW116086   3.613   1.464   5.188
 4693SOL    HW216087   3.598   1.568   5.080
 4694SOL     OW16088   0.112   7.997   4.649
 4694SOL    HW116089   0.163   7.971   4.572
 4694SOL    HW216090   0.085   8.087   4.630
 4695SOL     OW16091   8.878   3.947   9.364
 4695SOL    HW116092   8.789   3.972   9.390
 4695SOL    HW216093   8.918   4.028   9.332
 4696SOL     OW16094   1.142   0.985  10.141
 4696SOL    HW116095   1.110   0.941  10.220
 4696SOL    HW216096   1.159   1.075  10.169
 4697SOL     OW16097   9.761   6.555   4.583
 4697SOL    HW116098   9.849   6.579   4.554
 4697SOL    HW216099   9.708   6.633   4.569
 4698SOL     OW16100   2.853   2.017   7.667
 4698SOL    HW116101   2.852   2.104   7.707
 4698SOL    HW216102   2.910   2.026   7.590
 4699SOL     OW16103   3.415  10.078   3.126
 4699SOL    HW116104   3.398  10.143   3.193
 4699SOL    HW216105   3.332  10.071   3.078
 4700SOL     OW16106   2.804   9.520   3.726
 4700SOL    HW116107   2.897   9.498   3.725
 4700SOL    HW216108   2.760   9.436   3.739
 4701SOL     OW16109   3.866   6.397   1.584
 4701SOL    HW116110   3.793   6.444   1.623
 4701SOL    HW216111   3.922   6.373   1.658
 4702SOL     OW16112   5.016   8.090   9.000
 4702SOL    HW116113   4.977   8.149   8.936
 4702SOL    HW216114   5.013   8.004   8.957
 4703SOL     OW16115  11.024   9.756   7.361
 4703SOL    HW116116  10.966   9.751   7.285
 4703SOL    HW216117  11.108   9.785   7.325
 4704SOL     OW16118   2.481   7.308   9.694
 4704SOL    HW116119   2.528   7.359   9.760
 4704SOL    HW216120   2.397   7.288   9.735
 4705SOL     OW16121   2.357   6.780   4.184
 4705SOL    HW116122   2.335   6.689   4.164
 4705SOL    HW216123   2.417   6.806   4.114
 4706SOL     OW16124   4.881   6.767  10.382
 4706SOL    HW116125   4.827   6.815  10.444
 4706SOL    HW216126   4.925   6.700  10.434
 4707SOL     OW16127   9.237   2.894   4.391
 4707SOL    HW116128   9.234   2.974   4.338
 4707SOL    HW216129   9.158   2.896   4.444
 4708SOL     OW16130   9.322   3.636   9.737
 4708SOL    HW116131   9.321   3.709   9.675
 4708SOL    HW216132   9.409   3.640   9.777
 4709SOL     OW16133   4.945   6.673  10.904
 4709SOL    HW116134   4.926   6.582  10.926
 4709SOL    HW216135   5.040   6.675  10.892
 4710SOL     OW16136   0.426   7.094   7.192
 4710SOL    HW116137   0.413   7.134   7.278
 4710SOL    HW216138   0.497   7.030   7.205
 4711SOL     OW16139   0.846   4.738   1.776
 4711SOL    HW116140   0.919   4.755   1.835
 4711SOL    HW216141   0.840   4.816   1.721
 4712SOL     OW16142   3.515   2.453   0.579
 4712SOL    HW116143   3.447   2.414   0.523
 4712SOL    HW216144   3.561   2.378   0.616
 4713SOL     OW16145   5.284   7.873  10.284
 4713SOL    HW116146   5.221   7.941  10.308
 4713SOL    HW216147   5.369   7.916  10.287
 4714SOL     OW16148   2.835  10.978   9.927
 4714SOL    HW116149   2.780  10.902   9.945
 4714SOL    HW216150   2.922  10.941   9.910
 4715SOL     OW16151   2.950   4.658   5.528
 4715SOL    HW116152   3.025   4.717   5.517
 4715SOL    HW216153   2.986   4.570   5.515
 4716SOL     OW16154   1.543   3.004  10.182
 4716SOL    HW116155   1.577   3.057  10.253
 4716SOL    HW216156   1.605   3.017  10.110
 4717SOL     OW16157   4.726   1.941   7.669
 4717SOL    HW116158   4.658   1.897   7.720
 4717SOL    HW216159   4.794   1.963   7.732
 4718SOL     OW16160   2.197   9.018  10.156
 4718SOL    HW116161   2.232   8.997  10.242
 4718SOL    HW216162   2.176   9.111  10.160
 4719SOL     OW16163   4.132   6.765   8.193
 4719SOL    HW116164   4.227   6.776   8.204
 4719SOL    HW216165   4.116   6.789   8.101
 4720SOL     OW16166   9.784   7.892   4.120
 4720SOL    HW116167   9.754   7.982   4.128
 4720SOL    HW216168   9.764   7.868   4.029
 4721SOL     OW16169   1.437   8.690   8.863
 4721SOL    HW116170   1.432   8.735   8.947
 4721SOL    HW216171   1.485   8.750   8.806
 4722SOL     OW16172   0.062   9.088  10.854
 4722SOL    HW116173  -0.020   9.137  10.849
 4722SOL    HW216174   0.120   9.132  10.792
 4723SOL     OW16175  10.446   7.052   8.375
 4723SOL    HW116176  10.415   6.968   8.341
 4723SOL    HW216177  10.528   7.031   8.420
 4724SOL     OW16178   1.760   5.023   1.262
 4724SOL    HW116179   1.786   4.937   1.295
 4724SOL    HW216180   1.680   5.006   1.212
 4725SOL     OW16181   1.149   7.206  10.862
 4725SOL    HW116182   1.245   7.207  10.857
 4725SOL    HW216183   1.126   7.114  10.851
 4726SOL     OW16184   4.685   8.804   8.942
 4726SOL    HW116185   4.696   8.894   8.911
 4726SOL    HW216186   4.628   8.763   8.876
 4727SOL     OW16187   8.581   4.842   3.940
 4727SOL    HW116188   8.656   4.823   3.884
 4727SOL    HW216189   8.550   4.927   3.910
 4728SOL     OW16190   7.500   4.280  10.094
 4728SOL    HW116191   7.477   4.260  10.003
 4728SOL    HW216192   7.505   4.194  10.137
 4729SOL     OW16193   1.866   7.297   6.539
 4729SOL    HW116194   1.886   7.357   6.467
 4729SOL    HW216195   1.795   7.242   6.505
 4730SOL     OW16196   6.995   3.770   1.809
 4730SOL    HW116197   6.915   3.735   1.771
 4730SOL    HW216198   6.980   3.864   1.815
 4731SOL     OW16199   1.442   3.433   2.550
 4731SOL    HW116200   1.372   3.419   2.614
 4731SOL    HW216201   1.400   3.481   2.478
 4732SOL     OW16202   0.762   1.302   2.170
 4732SOL    HW116203   0.711   1.287   2.090
 4732SOL    HW216204   0.698   1.298   2.241
 4733SOL     OW16205   8.395   2.941   9.329
 4733SOL    HW116206   8.319   2.998   9.317
 4733SOL    HW216207   8.399   2.890   9.248
 4734SOL     OW16208   4.068   9.377   7.721
 4734SOL    HW116209   4.072   9.332   7.805
 4734SOL    HW216210   4.021   9.458   7.739
 4735SOL     OW16211  10.708   7.367   0.942
 4735SOL    HW116212  10.644   7.366   1.013
 4735SOL    HW216213  10.777   7.307   0.971
 4736SOL     OW16214  10.894   2.715   7.808
 4736SOL    HW116215  10.821   2.655   7.791
 4736SOL    HW216216  10.874   2.754   7.893
 4737SOL     OW16217   7.967   7.571   5.895
 4737SOL    HW116218   7.891   7.628   5.905
 4737SOL    HW216219   8.003   7.594   5.809
 4738SOL     OW16220   6.843  10.004   1.949
 4738SOL    HW116221   6.883   9.917   1.959
 4738SOL    HW216222   6.917  10.064   1.952
 4739SOL     OW16223   0.636   7.049   8.411
 4739SOL    HW116224   0.674   7.094   8.486
 4739SOL    HW216225   0.551   7.090   8.399
 4740SOL     OW16226  10.103   2.600   7.023
 4740SOL    HW116227  10.095   2.566   7.112
 4740SOL    HW216228  10.162   2.675   7.031
 4741SOL     OW16229   5.969   2.569   8.430
 4741SOL    HW116230   5.895   2.606   8.478
 4741SOL    HW216231   6.020   2.645   8.403
 4742SOL     OW16232   2.056   5.562  10.477
 4742SOL    HW116233   2.015   5.533  10.558
 4742SOL    HW216234   1.984   5.595  10.423
 4743SOL     OW16235   8.632   6.328   7.231
 4743SOL    HW116236   8.607   6.289   7.147
 4743SOL    HW216237   8.718   6.368   7.214
 4744SOL     OW16238   7.999   5.685   6.392
 4744SOL    HW116239   7.959   5.770   6.376
 4744SOL    HW216240   8.090   5.695   6.363
 4745SOL     OW16241   9.273   3.127   9.502
 4745SOL    HW116242   9.252   3.219   9.488
 4745SOL    HW216243   9.355   3.113   9.455
 4746SOL     OW16244   0.544   2.589   7.479
 4746SOL    HW116245   0.600   2.514   7.499
 4746SOL    HW216246   0.455   2.558   7.496
 4747SOL     OW16247   4.466   8.101   6.445
 4747SOL    HW116248   4.445   8.027   6.387
 4747SOL    HW216249   4.534   8.149   6.398
 4748SOL     OW16250   4.455   4.042   8.637
 4748SOL    HW116251   4.491   4.049   8.548
 4748SOL    HW216252   4.532   4.035   8.693
 4749SOL     OW16253   5.662   6.042   8.846
 4749SOL    HW116254   5.659   5.972   8.912
 4749SOL    HW216255   5.614   6.006   8.771
 4750SOL     OW16256   8.745   4.103  10.999
 4750SOL    HW116257   8.775   4.175  10.944
 4750SOL    HW216258   8.702   4.043  10.938
 4751SOL     OW16259   1.771   0.519  10.240
 4751SOL    HW116260   1.821   0.475  10.309
 4751SOL    HW216261   1.787   0.465  10.162
 4752SOL     OW16262   7.210   3.565   7.646
 4752SOL    HW116263   7.117   3.587   7.653
 4752SOL    HW216264   7.255   3.631   7.699
 4753SOL     OW16265   4.126   6.167   1.126
 4753SOL    HW116266   4.044   6.119   1.137
 4753SOL    HW216267   4.192   6.109   1.164
 4754SOL     OW16268   2.765   5.780  10.075
 4754SOL    HW116269   2.831   5.779  10.005
 4754SOL    HW216270   2.815   5.791  10.155
 4755SOL     OW16271   2.451   3.186   0.596
 4755SOL    HW116272   2.514   3.190   0.668
 4755SOL    HW216273   2.444   3.276   0.565
 4756SOL     OW16274   4.990   3.251   6.620
 4756SOL    HW116275   5.040   3.174   6.646
 4756SOL    HW216276   5.041   3.325   6.652
 4757SOL     OW16277   1.311   3.434   8.953
 4757SOL    HW116278   1.382   3.474   8.903
 4757SOL    HW216279   1.240   3.497   8.949
 4758SOL     OW16280   0.932   8.298   9.547
 4758SOL    HW116281   1.016   8.325   9.585
 4758SOL    HW216282   0.868   8.313   9.616
 4759SOL     OW16283  10.586   1.607   2.752
 4759SOL    HW116284  10.640   1.658   2.692
 4759SOL    HW216285  10.497   1.638   2.736
 4760SOL     OW16286   3.606   4.812   8.757
 4760SOL    HW116287   3.524   4.774   8.790
 4760SOL    HW216288   3.597   4.906   8.770
 4761SOL     OW16289   1.459   4.530  11.078
 4761SOL    HW116290   1.428   4.618  11.096
 4761SOL    HW216291   1.554   4.535  11.087
 4762SOL     OW16292   2.959   9.374  10.777
 4762SOL    HW116293   3.012   9.401  10.702
 4762SOL    HW216294   2.876   9.346  10.739
 4763SOL     OW16295   8.384   2.662   7.578
 4763SOL    HW116296   8.365   2.590   7.638
 4763SOL    HW216297   8.346   2.633   7.495
 4764SOL     OW16298   3.269   6.456   0.763
 4764SOL    HW116299   3.353   6.497   0.744
 4764SOL    HW216300   3.204   6.516   0.727
 4765SOL     OW16301   6.167   7.922   8.837
 4765SOL    HW116302   6.263   7.925   8.831
 4765SOL    HW216303   6.150   7.861   8.909
 4766SOL     OW16304   1.158   4.319   9.276
 4766SOL    HW116305   1.090   4.374   9.314
 4766SOL    HW216306   1.144   4.233   9.316
 4767SOL     OW16307   2.293   3.209   6.943
 4767SOL    HW116308   2.314   3.301   6.954
 4767SOL    HW216309   2.202   3.201   6.971
 4768SOL     OW16310   9.750   4.232  10.521
 4768SOL    HW116311   9.807   4.187  10.583
 4768SOL    HW216312   9.800   4.309  10.494
 4769SOL     OW16313   4.136   6.692   4.555
 4769SOL    HW116314   4.187   6.737   4.622
 4769SOL    HW216315   4.188   6.614   4.534
 4770SOL     OW16316   4.577   3.779   0.358
 4770SOL    HW116317   4.559   3.771   0.264
 4770SOL    HW216318   4.540   3.863   0.383
 4771SOL     OW16319   1.659   4.553   3.875
 4771SOL    HW116320   1.627   4.477   3.825
 4771SOL    HW216321   1.685   4.616   3.808
 4772SOL     OW16322   1.178   1.838   0.752
 4772SOL    HW116323   1.270   1.846   0.728
 4772SOL    HW216324   1.131   1.839   0.668
 4773SOL     OW16325   6.059   2.366  10.410
 4773SOL    HW116326   6.123   2.297  10.430
 4773SOL    HW216327   5.991   2.321  10.360
 4774SOL     OW16328   7.035   9.563   6.612
 4774SOL    HW116329   6.995   9.601   6.690
 4774SOL    HW216330   7.065   9.638   6.560
 4775SOL     OW16331   3.875   4.322  10.275
 4775SOL    HW116332   3.884   4.322  10.179
 4775SOL    HW216333   3.908   4.407  10.302
 4776SOL     OW16334   8.797   2.297   8.947
 4776SOL    HW116335   8.772   2.386   8.922
 4776SOL    HW216336   8.877   2.308   8.999
 4777SOL     OW16337   9.898   7.182   9.628
 4777SOL    HW116338   9.888   7.165   9.721
 4777SOL    HW216339   9.882   7.097   9.586
 4778SOL     OW16340   6.966   1.504   9.283
 4778SOL    HW116341   7.016   1.430   9.247
 4778SOL    HW216342   6.876   1.471   9.288
 4779SOL     OW16343   2.387   4.051  10.875
 4779SOL    HW116344   2.408   4.140  10.903
 4779SOL    HW216345   2.406   4.050  10.781
 4780SOL     OW16346   3.600   8.131   9.328
 4780SOL    HW116347   3.517   8.085   9.313
 4780SOL    HW216348   3.580   8.196   9.395
 4781SOL     OW16349   2.433   5.553   8.168
 4781SOL    HW116350   2.446   5.626   8.108
 4781SOL    HW216351   2.401   5.593   8.249
 4782SOL     OW16352   4.747   4.112   4.895
 4782SOL    HW116353   4.703   4.195   4.913
 4782SOL    HW216354   4.839   4.135   4.882
 4783SOL     OW16355   0.359   0.750   6.635
 4783SOL    HW116356   0.304   0.826   6.616
 4783SOL    HW216357   0.330   0.683   6.572
 4784SOL     OW16358   8.335   7.787   4.920
 4784SOL    HW116359   8.262   7.777   4.980
 4784SOL    HW216360   8.401   7.725   4.952
 4785SOL     OW16361   3.285   8.414   1.357
 4785SOL    HW116362   3.306   8.325   1.385
 4785SOL    HW216363   3.370   8.459   1.355
 4786SOL     OW16364   8.980   9.959   9.433
 4786SOL    HW116365   9.065   9.995   9.407
 4786SOL    HW216366   8.936   9.941   9.350
 4787SOL     OW16367   4.666   2.337   7.615
 4787SOL    HW116368   4.697   2.333   7.524
 4787SOL    HW216369   4.746   2.336   7.668
 4788SOL     OW16370   5.006   6.305   0.398
 4788SOL    HW116371   4.999   6.209   0.402
 4788SOL    HW216372   4.916   6.335   0.390
 4789SOL     OW16373   5.074   9.762   9.400
 4789SOL    HW116374   5.157   9.783   9.442
 4789SOL    HW216375   5.086   9.673   9.365
 4790SOL     OW16376   5.776   9.567  11.029
 4790SOL    HW116377   5.863   9.526  11.027
 4790SOL    HW216378   5.793   9.659  11.009
 4791SOL     OW16379   5.087   4.223   9.210
 4791SOL    HW116380   5.107   4.269   9.291
 4791SOL    HW216381   5.170   4.224   9.161
 4792SOL     OW16382   3.887   6.389   9.009
 4792SOL    HW116383   3.925   6.318   8.957
 4792SOL    HW216384   3.942   6.394   9.087
 4793SOL     OW16385   3.704   8.556   4.370
 4793SOL    HW116386   3.752   8.520   4.445
 4793SOL    HW216387   3.615   8.568   4.402
 4794SOL     OW16388   4.045   5.764   4.418
 4794SOL    HW116389   3.971   5.751   4.477
 4794SOL    HW216390   4.120   5.781   4.475
 4795SOL     OW16391   1.890   2.817   1.276
 4795SOL    HW116392   1.868   2.910   1.282
 4795SOL    HW216393   1.808   2.772   1.295
 4796SOL     OW16394   2.887   1.435   7.637
 4796SOL    HW116395   2.914   1.372   7.570
 4796SOL    HW216396   2.966   1.485   7.655
 4797SOL     OW16397   2.096   0.683   9.246
 4797SOL    HW116398   2.048   0.610   9.286
 4797SOL    HW216399   2.047   0.703   9.166
 4798SOL     OW16400   3.063   2.573   8.757
 4798SOL    HW116401   3.002   2.565   8.683
 4798SOL    HW216402   3.058   2.488   8.801
 4799SOL     OW16403  10.947   5.671   7.050
 4799SOL    HW116404  10.990   5.697   7.131
 4799SOL    HW216405  11.018   5.669   6.985
 4800SOL     OW16406   9.502  10.588   8.064
 4800SOL    HW116407   9.460  10.667   8.097
 4800SOL    HW216408   9.577  10.575   8.122
 4801SOL     OW16409   1.806  10.225   4.342
 4801SOL    HW116410   1.882  10.201   4.288
 4801SOL    HW216411   1.843  10.276   4.414
 4802SOL     OW16412   1.265   8.066   4.480
 4802SOL    HW116413   1.219   8.031   4.403
 4802SOL    HW216414   1.290   8.154   4.454
 4803SOL     OW16415  10.535   7.156   9.444
 4803SOL    HW116416  10.559   7.139   9.535
 4803SOL    HW216417  10.457   7.102   9.429
 4804SOL     OW16418   3.969   6.287   0.558
 4804SOL    HW116419   4.002   6.245   0.637
 4804SOL    HW216420   3.880   6.314   0.579
 4805SOL     OW16421   1.274   7.089   0.108
 4805SOL    HW116422   1.346   7.064   0.050
 4805SOL    HW216423   1.211   7.132   0.051
 4806SOL     OW16424  10.699   6.145   4.982
 4806SOL    HW116425  10.761   6.146   5.055
 4806SOL    HW216426  10.617   6.179   5.018
 4807SOL     OW16427   8.945   4.418  10.640
 4807SOL    HW116428   8.904   4.366  10.709
 4807SOL    HW216429   9.029   4.446  10.677
 4808SOL     OW16430   9.880   6.559   4.250
 4808SOL    HW116431   9.878   6.479   4.197
 4808SOL    HW216432   9.790   6.568   4.282
 4809SOL     OW16433   0.340   4.998   5.692
 4809SOL    HW116434   0.249   5.023   5.676
 4809SOL    HW216435   0.377   5.070   5.742
 4810SOL     OW16436   1.232   6.787   3.002
 4810SOL    HW116437   1.151   6.739   3.020
 4810SOL    HW216438   1.302   6.726   3.027
 4811SOL     OW16439   3.750   8.032   6.200
 4811SOL    HW116440   3.740   7.944   6.162
 4811SOL    HW216441   3.766   8.016   6.293
 4812SOL     OW16442   8.256   0.009   1.636
 4812SOL    HW116443   8.293  -0.072   1.599
 4812SOL    HW216444   8.332   0.066   1.648
 4813SOL     OW16445  10.692   7.822   8.934
 4813SOL    HW116446  10.690   7.863   8.847
 4813SOL    HW216447  10.767   7.762   8.930
 4814SOL     OW16448   9.717   2.075   5.784
 4814SOL    HW116449   9.738   2.119   5.866
 4814SOL    HW216450   9.748   1.985   5.796
 4815SOL     OW16451   7.268   7.707   8.493
 4815SOL    HW116452   7.229   7.705   8.580
 4815SOL    HW216453   7.347   7.760   8.503
 4816SOL     OW16454   1.722   7.666   1.003
 4816SOL    HW116455   1.741   7.690   0.912
 4816SOL    HW216456   1.661   7.733   1.033
 4817SOL     OW16457   0.955   6.079   9.541
 4817SOL    HW116458   0.904   6.123   9.609
 4817SOL    HW216459   1.042   6.118   9.547
 4818SOL     OW16460   2.521   4.659  10.658
 4818SOL    HW116461   2.506   4.719  10.585
 4818SOL    HW216462   2.586   4.703  10.712
 4819SOL     OW16463   2.584   2.173   1.598
 4819SOL    HW116464   2.629   2.112   1.657
 4819SOL    HW216465   2.562   2.120   1.521
 4820SOL     OW16466   2.265   1.388   0.438
 4820SOL    HW116467   2.285   1.412   0.347
 4820SOL    HW216468   2.201   1.453   0.467
 4821SOL     OW16469   7.263   6.922  10.993
 4821SOL    HW116470   7.324   6.855  10.961
 4821SOL    HW216471   7.185   6.911  10.938
 4822SOL     OW16472   9.131   7.544   9.280
 4822SOL    HW116473   9.088   7.490   9.213
 4822SOL    HW216474   9.188   7.483   9.326
 4823SOL     OW16475  10.769   6.445   5.598
 4823SOL    HW116476  10.795   6.524   5.644
 4823SOL    HW216477  10.840   6.383   5.614
 4824SOL     OW16478   4.291   9.595   7.259
 4824SOL    HW116479   4.368   9.649   7.277
 4824SOL    HW216480   4.224   9.628   7.318
 4825SOL     OW16481  10.251  10.115   7.869
 4825SOL    HW116482  10.214  10.202   7.856
 4825SOL    HW216483  10.239  10.097   7.962
 4826SOL     OW16484   2.698   4.266  10.345
 4826SOL    HW116485   2.723   4.175  10.325
 4826SOL    HW216486   2.729   4.280  10.434
 4827SOL     OW16487   7.756   4.954   0.953
 4827SOL    HW116488   7.810   5.029   0.978
 4827SOL    HW216489   7.675   4.966   1.001
 4828SOL     OW16490   2.487   1.947   7.284
 4828SOL    HW116491   2.526   1.901   7.209
 4828SOL    HW216492   2.397   1.964   7.257
 4829SOL     OW16493   7.041   2.202   5.465
 4829SOL    HW116494   7.063   2.227   5.375
 4829SOL    HW216495   6.946   2.188   5.463
 4830SOL     OW16496   3.535   3.113   5.252
 4830SOL    HW116497   3.468   3.156   5.305
 4830SOL    HW216498   3.594   3.073   5.315
 4831SOL     OW16499  11.045   7.956   7.971
 4831SOL    HW116500  10.975   7.898   7.940
 4831SOL    HW216501  11.028   8.040   7.928
 4832SOL     OW16502   8.659   5.071   0.743
 4832SOL    HW116503   8.583   5.046   0.795
 4832SOL    HW216504   8.641   5.035   0.656
 4833SOL     OW16505   6.373   8.958   8.074
 4833SOL    HW116506   6.304   8.959   8.140
 4833SOL    HW216507   6.418   9.041   8.085
 4834SOL     OW16508   3.219   1.966   6.010
 4834SOL    HW116509   3.284   1.914   6.057
 4834SOL    HW216510   3.147   1.905   5.995
 4835SOL     OW16511   0.066   5.160   9.914
 4835SOL    HW116512   0.088   5.200   9.997
 4835SOL    HW216513   0.017   5.227   9.866
 4836SOL     OW16514   1.334   6.816   5.241
 4836SOL    HW116515   1.296   6.728   5.242
 4836SOL    HW216516   1.259   6.874   5.234
 4837SOL     OW16517   0.189   5.623   5.336
 4837SOL    HW116518   0.272   5.665   5.314
 4837SOL    HW216519   0.143   5.616   5.252
 4838SOL     OW16520   3.554   5.942   1.552
 4838SOL    HW116521   3.470   5.918   1.513
 4838SOL    HW216522   3.532   6.005   1.621
 4839SOL     OW16523   1.523   3.629   4.961
 4839SOL    HW116524   1.571   3.587   5.032
 4839SOL    HW216525   1.431   3.623   4.987
 4840SOL     OW16526   8.428   5.127   9.385
 4840SOL    HW116527   8.476   5.057   9.430
 4840SOL    HW216528   8.495   5.191   9.363
 4841SOL     OW16529   6.619   5.675   9.669
 4841SOL    HW116530   6.586   5.727   9.596
 4841SOL    HW216531   6.555   5.687   9.738
 4842SOL     OW16532   1.162   1.333   7.864
 4842SOL    HW116533   1.182   1.291   7.780
 4842SOL    HW216534   1.179   1.426   7.848
 4843SOL     OW16535   8.084   8.644   6.483
 4843SOL    HW116536   8.097   8.549   6.490
 4843SOL    HW216537   8.013   8.654   6.419
 4844SOL     OW16538   2.853   8.655   6.126
 4844SOL    HW116539   2.908   8.614   6.193
 4844SOL    HW216540   2.796   8.584   6.095
 4845SOL     OW16541   6.491   9.681   7.822
 4845SOL    HW116542   6.407   9.637   7.811
 4845SOL    HW216543   6.471   9.774   7.811
 4846SOL     OW16544   4.039   5.720   2.171
 4846SOL    HW116545   4.086   5.656   2.224
 4846SOL    HW216546   4.105   5.753   2.109
 4847SOL     OW16547   4.844   9.310   9.893
 4847SOL    HW116548   4.849   9.215   9.880
 4847SOL    HW216549   4.900   9.327   9.969
 4848SOL     OW16550   5.816   3.729   8.047
 4848SOL    HW116551   5.821   3.763   8.136
 4848SOL    HW216552   5.789   3.803   7.993
 4849SOL     OW16553   4.508   0.379   1.057
 4849SOL    HW116554   4.599   0.410   1.057
 4849SOL    HW216555   4.494   0.347   0.968
 4850SOL     OW16556   4.040   2.034   7.703
 4850SOL    HW116557   4.011   2.082   7.780
 4850SOL    HW216558   4.130   2.008   7.723
 4851SOL     OW16559   4.548   4.318   1.573
 4851SOL    HW116560   4.472   4.373   1.589
 4851SOL    HW216561   4.614   4.347   1.636
 4852SOL     OW16562   0.622   8.792   9.217
 4852SOL    HW116563   0.691   8.847   9.253
 4852SOL    HW216564   0.617   8.717   9.276
 4853SOL     OW16565   0.293   2.952  10.274
 4853SOL    HW116566   0.300   2.879  10.212
 4853SOL    HW216567   0.250   3.021  10.223
 4854SOL     OW16568   3.063   9.065   3.010
 4854SOL    HW116569   3.082   9.058   3.103
 4854SOL    HW216570   2.994   9.000   2.995
 4855SOL     OW16571   1.270   3.792   6.824
 4855SOL    HW116572   1.339   3.858   6.819
 4855SOL    HW216573   1.205   3.821   6.760
 4856SOL     OW16574   0.899   9.936   6.654
 4856SOL    HW116575   0.970   9.887   6.696
 4856SOL    HW216576   0.842   9.962   6.726
 4857SOL     OW16577   1.589   9.549   9.887
 4857SOL    HW116578   1.568   9.544   9.980
 4857SOL    HW216579   1.673   9.595   9.883
 4858SOL     OW16580   2.427   1.775   8.111
 4858SOL    HW116581   2.467   1.862   8.113
 4858SOL    HW216582   2.333   1.791   8.101
 4859SOL     OW16583  10.033   6.810   9.652
 4859SOL    HW116584  10.001   6.802   9.562
 4859SOL    HW216585   9.986   6.885   9.688
 4860SOL     OW16586   0.814   4.595   8.126
 4860SOL    HW116587   0.868   4.628   8.198
 4860SOL    HW216588   0.877   4.555   8.065
 4861SOL     OW16589   9.085  10.175   1.016
 4861SOL    HW116590   9.008  10.205   1.064
 4861SOL    HW216591   9.113  10.096   1.063
 4862SOL     OW16592   0.536   4.596   5.940
 4862SOL    HW116593   0.548   4.616   5.847
 4862SOL    HW216594   0.574   4.670   5.986
 4863SOL     OW16595   9.826   4.232   8.800
 4863SOL    HW116596   9.859   4.271   8.719
 4863SOL    HW216597   9.734   4.257   8.803
 4864SOL     OW16598  10.958   3.391   6.237
 4864SOL    HW116599  10.875   3.434   6.256
 4864SOL    HW216600  11.022   3.437   6.290
 4865SOL     OW16601   5.101   7.668  10.177
 4865SOL    HW116602   5.127   7.576  10.172
 4865SOL    HW216603   5.171   7.709  10.227
 4866SOL     OW16604   6.594   6.177   8.687
 4866SOL    HW116605   6.589   6.083   8.666
 4866SOL    HW216606   6.515   6.214   8.648
 4867SOL     OW16607   6.347   6.236   2.133
 4867SOL    HW116608   6.283   6.171   2.161
 4867SOL    HW216609   6.432   6.198   2.157
 4868SOL     OW16610  10.022   9.882   6.811
 4868SOL    HW116611  10.106   9.914   6.778
 4868SOL    HW216612  10.026   9.897   6.905
 4869SOL     OW16613   3.266   2.572   7.872
 4869SOL    HW116614   3.323   2.503   7.838
 4869SOL    HW216615   3.242   2.623   7.795
 4870SOL     OW16616  10.677   2.828   2.321
 4870SOL    HW116617  10.749   2.882   2.352
 4870SOL    HW216618  10.628   2.805   2.400
 4871SOL     OW16619   6.202   9.966   8.347
 4871SOL    HW116620   6.277   9.968   8.406
 4871SOL    HW216621   6.154   9.887   8.372
 4872SOL     OW16622   2.193   3.569   2.588
 4872SOL    HW116623   2.256   3.508   2.627
 4872SOL    HW216624   2.115   3.561   2.643
 4873SOL     OW16625  10.810   8.315  10.998
 4873SOL    HW116626  10.887   8.262  11.020
 4873SOL    HW216627  10.824   8.397  11.044
 4874SOL     OW16628   2.174  10.124   7.765
 4874SOL    HW116629   2.111  10.134   7.693
 4874SOL    HW216630   2.202  10.032   7.760
 4875SOL     OW16631   1.207   2.312   0.521
 4875SOL    HW116632   1.210   2.397   0.564
 4875SOL    HW216633   1.233   2.329   0.430
 4876SOL     OW16634   8.000   9.196   0.331
 4876SOL    HW116635   7.907   9.188   0.353
 4876SOL    HW216636   8.045   9.146   0.399
 4877SOL     OW16637   0.013   5.282   7.095
 4877SOL    HW116638   0.038   5.307   7.006
 4877SOL    HW216639   0.094   5.252   7.135
 4878SOL     OW16640   3.696   2.583   6.173
 4878SOL    HW116641   3.617   2.567   6.225
 4878SOL    HW216642   3.664   2.595   6.083
 4879SOL     OW16643   2.192   4.987  10.734
 4879SOL    HW116644   2.123   4.956  10.793
 4879SOL    HW216645   2.196   5.081  10.748
 4880SOL     OW16646   2.008   1.893   7.858
 4880SOL    HW116647   2.091   1.862   7.822
 4880SOL    HW216648   1.946   1.823   7.838
 4881SOL     OW16649   4.934   3.153   8.725
 4881SOL    HW116650   4.894   3.239   8.715
 4881SOL    HW216651   4.904   3.104   8.648
 4882SOL     OW16652  10.502   6.463   4.503
 4882SOL    HW116653  10.559   6.486   4.429
 4882SOL    HW216654  10.415   6.456   4.464
 4883SOL     OW16655   7.072   6.035   0.851
 4883SOL    HW116656   7.110   6.010   0.766
 4883SOL    HW216657   7.064   6.130   0.846
 4884SOL     OW16658   7.645   2.136   6.532
 4884SOL    HW116659   7.599   2.054   6.513
 4884SOL    HW216660   7.737   2.110   6.543
 4885SOL     OW16661   9.867   6.963   7.048
 4885SOL    HW116662   9.901   6.908   7.119
 4885SOL    HW216663   9.822   6.901   6.990
 4886SOL     OW16664   3.099  10.447   0.393
 4886SOL    HW116665   3.039  10.501   0.443
 4886SOL    HW216666   3.170  10.425   0.454
 4887SOL     OW16667   8.634   2.919   1.024
 4887SOL    HW116668   8.543   2.948   1.031
 4887SOL    HW216669   8.641   2.884   0.935
 4888SOL     OW16670   0.884   0.384   0.368
 4888SOL    HW116671   0.896   0.292   0.345
 4888SOL    HW216672   0.972   0.415   0.388
 4889SOL     OW16673   1.241   8.002   6.800
 4889SOL    HW116674   1.253   7.935   6.732
 4889SOL    HW216675   1.182   8.066   6.760
 4890SOL     OW16676   0.958   4.931   7.507
 4890SOL    HW116677   0.898   4.885   7.448
 4890SOL    HW216678   0.941   5.024   7.491
 4891SOL     OW16679   3.589   0.299   3.292
 4891SOL    HW116680   3.620   0.209   3.301
 4891SOL    HW216681   3.513   0.292   3.234
 4892SOL     OW16682   4.077   4.894   0.968
 4892SOL    HW116683   4.142   4.900   0.898
 4892SOL    HW216684   4.102   4.815   1.017
 4893SOL     OW16685   8.211   8.137   7.722
 4893SOL    HW116686   8.261   8.141   7.640
 4893SOL    HW216687   8.223   8.223   7.762
 4894SOL     OW16688   1.556   8.915   9.754
 4894SOL    HW116689   1.539   8.986   9.693
 4894SOL    HW216690   1.596   8.846   9.700
 4895SOL     OW16691   7.771   5.698   0.549
 4895SOL    HW116692   7.718   5.774   0.569
 4895SOL    HW216693   7.861   5.730   0.552
 4896SOL     OW16694   9.370   4.379   0.688
 4896SOL    HW116695   9.325   4.414   0.611
 4896SOL    HW216696   9.326   4.421   0.762
 4897SOL     OW16697   7.307   0.989   6.464
 4897SOL    HW116698   7.368   1.059   6.486
 4897SOL    HW216699   7.231   1.034   6.426
 4898SOL     OW16700   6.892   1.898   2.002
 4898SOL    HW116701   6.874   1.919   1.910
 4898SOL    HW216702   6.834   1.955   2.052
 4899SOL     OW16703   0.396   2.423   6.771
 4899SOL    HW116704   0.468   2.360   6.777
 4899SOL    HW216705   0.370   2.439   6.861
 4900SOL     OW16706   1.239   7.160   3.494
 4900SOL    HW116707   1.152   7.169   3.454
 4900SOL    HW216708   1.223   7.162   3.588
 4901SOL     OW16709   1.930   7.726   6.271
 4901SOL    HW116710   1.871   7.696   6.340
 4901SOL    HW216711   1.900   7.681   6.192
 4902SOL     OW16712   4.021   1.740   7.823
 4902SOL    HW116713   3.970   1.762   7.745
 4902SOL    HW216714   4.043   1.647   7.812
 4903SOL     OW16715   7.028   1.593   9.534
 4903SOL    HW116716   7.031   1.575   9.440
 4903SOL    HW216717   6.940   1.627   9.549
 4904SOL     OW16718   3.099   2.365   9.155
 4904SOL    HW116719   3.103   2.449   9.201
 4904SOL    HW216720   3.186   2.326   9.168
 4905SOL     OW16721  10.901   9.471   7.211
 4905SOL    HW116722  10.899   9.439   7.301
 4905SOL    HW216723  10.815   9.510   7.197
 4906SOL     OW16724   8.935   5.765   9.336
 4906SOL    HW116725   8.848   5.801   9.354
 4906SOL    HW216726   8.987   5.840   9.306
 4907SOL     OW16727   1.294   5.652  10.658
 4907SOL    HW116728   1.266   5.742  10.675
 4907SOL    HW216729   1.272   5.604  10.738
 4908SOL     OW16730   1.741   5.828  10.498
 4908SOL    HW116731   1.650   5.851  10.479
 4908SOL    HW216732   1.765   5.885  10.571
 4909SOL     OW16733  10.724   9.831  10.997
 4909SOL    HW116734  10.716   9.862  10.907
 4909SOL    HW216735  10.704   9.907  11.050
 4910SOL     OW16736  10.019   9.156   9.441
 4910SOL    HW116737   9.940   9.203   9.415
 4910SOL    HW216738   9.996   9.113   9.523
 4911SOL     OW16739   0.395   3.058   1.286
 4911SOL    HW116740   0.345   3.065   1.205
 4911SOL    HW216741   0.359   3.126   1.342
 4912SOL     OW16742   6.036   0.893   1.941
 4912SOL    HW116743   5.941   0.898   1.949
 4912SOL    HW216744   6.069   0.934   2.020
 4913SOL     OW16745   6.198   8.967   4.003
 4913SOL    HW116746   6.102   8.966   4.003
 4913SOL    HW216747   6.221   9.055   4.031
 4914SOL     OW16748   6.342   5.977   0.908
 4914SOL    HW116749   6.347   5.918   0.832
 4914SOL    HW216750   6.421   6.031   0.902
 4915SOL     OW16751   8.180   2.355   3.048
 4915SOL    HW116752   8.127   2.432   3.029
 4915SOL    HW216753   8.237   2.382   3.120
 4916SOL     OW16754   5.786   9.166   4.075
 4916SOL    HW116755   5.694   9.183   4.056
 4916SOL    HW216756   5.834   9.227   4.019
 4917SOL     OW16757   3.784   3.667   8.009
 4917SOL    HW116758   3.790   3.603   7.937
 4917SOL    HW216759   3.766   3.614   8.086
 4918SOL     OW16760  10.369   8.957   3.406
 4918SOL    HW116761  10.375   8.981   3.498
 4918SOL    HW216762  10.359   9.040   3.360
 4919SOL     OW16763   8.398   3.977   5.271
 4919SOL    HW116764   8.369   4.065   5.246
 4919SOL    HW216765   8.427   3.937   5.189
 4920SOL     OW16766   5.994   0.066   0.240
 4920SOL    HW116767   6.074   0.100   0.200
 4920SOL    HW216768   5.979   0.122   0.316
 4921SOL     OW16769   8.312   5.880   4.855
 4921SOL    HW116770   8.376   5.813   4.830
 4921SOL    HW216771   8.249   5.881   4.783
 4922SOL     OW16772   6.298   6.593   1.701
 4922SOL    HW116773   6.338   6.666   1.653
 4922SOL    HW216774   6.315   6.612   1.793
 4923SOL     OW16775   7.961   5.302   9.396
 4923SOL    HW116776   7.913   5.383   9.407
 4923SOL    HW216777   8.018   5.296   9.473
 4924SOL     OW16778  10.370   0.726   5.120
 4924SOL    HW116779  10.378   0.638   5.158
 4924SOL    HW216780  10.320   0.776   5.184
 4925SOL     OW16781   6.133   3.255  11.065
 4925SOL    HW116782   6.146   3.346  11.039
 4925SOL    HW216783   6.187   3.244  11.143
 4926SOL     OW16784   5.605   1.043   6.970
 4926SOL    HW116785   5.607   0.971   6.907
 4926SOL    HW216786   5.689   1.087   6.958
 4927SOL     OW16787   6.836  10.057   0.298
 4927SOL    HW116788   6.788  10.135   0.326
 4927SOL    HW216789   6.780   9.983   0.324
 4928SOL     OW16790   7.240   8.224   8.148
 4928SOL    HW116791   7.163   8.242   8.202
 4928SOL    HW216792   7.285   8.153   8.193
 4929SOL     OW16793   9.930   7.130   8.263
 4929SOL    HW116794   9.900   7.166   8.179
 4929SOL    HW216795   9.946   7.206   8.318
 4930SOL     OW16796   1.296   3.197   2.086
 4930SOL    HW116797   1.229   3.176   2.150
 4930SOL    HW216798   1.350   3.118   2.081
 4931SOL     OW16799   6.163   1.013   5.595
 4931SOL    HW116800   6.129   1.054   5.674
 4931SOL    HW216801   6.251   1.049   5.585
 4932SOL     OW16802  10.032   6.659   8.159
 4932SOL    HW116803  10.071   6.596   8.220
 4932SOL    HW216804  10.107   6.695   8.111
 4933SOL     OW16805   2.859   1.000   2.453
 4933SOL    HW116806   2.813   0.931   2.500
 4933SOL    HW216807   2.947   0.964   2.440
 4934SOL     OW16808   6.733   9.677   2.265
 4934SOL    HW116809   6.710   9.757   2.219
 4934SOL    HW216810   6.663   9.666   2.329
 4935SOL     OW16811   1.072   9.271   7.467
 4935SOL    HW116812   1.008   9.217   7.420
 4935SOL    HW216813   1.109   9.212   7.533
 4936SOL     OW16814   7.832   4.029  10.526
 4936SOL    HW116815   7.736   4.029  10.522
 4936SOL    HW216816   7.858   4.115  10.494
 4937SOL     OW16817   2.064   9.453   6.260
 4937SOL    HW116818   1.977   9.455   6.221
 4937SOL    HW216819   2.119   9.500   6.197
 4938SOL     OW16820   1.110  10.567   0.003
 4938SOL    HW116821   1.154  10.651   0.016
 4938SOL    HW216822   1.179  10.502   0.017
 4939SOL     OW16823   5.028   5.787  10.488
 4939SOL    HW116824   5.043   5.713  10.429
 4939SOL    HW216825   4.949   5.763  10.536
 4940SOL     OW16826   0.366   4.635   0.407
 4940SOL    HW116827   0.375   4.574   0.480
 4940SOL    HW216828   0.273   4.658   0.406
 4941SOL     OW16829   0.082   3.498   3.100
 4941SOL    HW116830   0.041   3.547   3.029
 4941SOL    HW216831   0.154   3.553   3.129
 4942SOL     OW16832   9.011   6.850   3.264
 4942SOL    HW116833   9.100   6.837   3.296
 4942SOL    HW216834   8.996   6.944   3.272
 4943SOL     OW16835   2.207   7.888   9.530
 4943SOL    HW116836   2.187   7.794   9.528
 4943SOL    HW216837   2.155   7.922   9.603
 4944SOL     OW16838   3.990   5.483   5.645
 4944SOL    HW116839   4.012   5.512   5.733
 4944SOL    HW216840   4.052   5.412   5.627
 4945SOL     OW16841  10.989   1.414   4.342
 4945SOL    HW116842  10.963   1.415   4.250
 4945SOL    HW216843  11.013   1.322   4.359
 4946SOL     OW16844   3.302   2.712  10.619
 4946SOL    HW116845   3.344   2.653  10.556
 4946SOL    HW216846   3.221   2.740  10.576
 4947SOL     OW16847  10.789   1.816   5.173
 4947SOL    HW116848  10.725   1.859   5.116
 4947SOL    HW216849  10.739   1.749   5.220
 4948SOL     OW16850   2.297  10.221   2.340
 4948SOL    HW116851   2.226  10.168   2.376
 4948SOL    HW216852   2.330  10.271   2.414
 4949SOL     OW16853   2.751   5.531   3.334
 4949SOL    HW116854   2.751   5.450   3.283
 4949SOL    HW216855   2.825   5.522   3.394
 4950SOL     OW16856   3.489   3.584   8.393
 4950SOL    HW116857   3.496   3.672   8.430
 4950SOL    HW216858   3.443   3.533   8.460
 4951SOL     OW16859   9.005  10.485  10.234
 4951SOL    HW116860   8.938  10.552  10.222
 4951SOL    HW216861   9.082  10.520  10.189
 4952SOL     OW16862   1.285   3.493   4.913
 4952SOL    HW116863   1.272   3.470   4.820
 4952SOL    HW216864   1.277   3.588   4.915
 4953SOL     OW16865   0.014   5.684  10.097
 4953SOL    HW116866   0.020   5.740  10.020
 4953SOL    HW216867   0.089   5.625  10.090
 4954SOL     OW16868   0.144   6.661   7.770
 4954SOL    HW116869   0.205   6.670   7.842
 4954SOL    HW216870   0.154   6.570   7.741
 4955SOL     OW16871   4.484   4.236  10.825
 4955SOL    HW116872   4.437   4.319  10.821
 4955SOL    HW216873   4.558   4.253  10.883
 4956SOL     OW16874   0.613   6.891   9.726
 4956SOL    HW116875   0.540   6.949   9.707
 4956SOL    HW216876   0.675   6.906   9.654
 4957SOL     OW16877   4.668   2.294   0.793
 4957SOL    HW116878   4.756   2.320   0.819
 4957SOL    HW216879   4.610   2.338   0.855
 4958SOL     OW16880   0.755   2.847   9.148
 4958SOL    HW116881   0.810   2.876   9.221
 4958SOL    HW216882   0.700   2.778   9.185
 4959SOL     OW16883   0.106   8.165   8.964
 4959SOL    HW116884   0.144   8.188   8.879
 4959SOL    HW216885   0.041   8.233   8.980
 4960SOL     OW16886   4.628   8.213   5.591
 4960SOL    HW116887   4.608   8.132   5.638
 4960SOL    HW216888   4.691   8.186   5.524
 4961SOL     OW16889   3.922   9.095   2.274
 4961SOL    HW116890   3.867   9.044   2.214
 4961SOL    HW216891   3.903   9.186   2.253
 4962SOL     OW16892   4.644   5.479   0.645
 4962SOL    HW116893   4.575   5.414   0.660
 4962SOL    HW216894   4.662   5.473   0.551
 4963SOL     OW16895   6.552   9.571   1.819
 4963SOL    HW116896   6.490   9.547   1.750
 4963SOL    HW216897   6.534   9.663   1.837
 4964SOL     OW16898   1.556   7.178   1.596
 4964SOL    HW116899   1.468   7.189   1.559
 4964SOL    HW216900   1.571   7.083   1.594
 4965SOL     OW16901  10.872   0.346   2.034
 4965SOL    HW116902  10.791   0.327   2.081
 4965SOL    HW216903  10.878   0.277   1.967
 4966SOL     OW16904   8.113   6.153  10.006
 4966SOL    HW116905   8.134   6.143   9.913
 4966SOL    HW216906   8.020   6.177  10.007
 4967SOL     OW16907   1.214   3.703   8.906
 4967SOL    HW116908   1.218   3.768   8.836
 4967SOL    HW216909   1.271   3.738   8.974
 4968SOL     OW16910   9.998   8.766   7.035
 4968SOL    HW116911   9.931   8.814   6.987
 4968SOL    HW216912   9.955   8.684   7.060
 4969SOL     OW16913   5.981   8.395   8.191
 4969SOL    HW116914   5.899   8.354   8.217
 4969SOL    HW216915   5.958   8.448   8.115
 4970SOL     OW16916   9.436   7.767   1.868
 4970SOL    HW116917   9.523   7.728   1.879
 4970SOL    HW216918   9.410   7.794   1.956
 4971SOL     OW16919   8.347   3.851  10.867
 4971SOL    HW116920   8.286   3.782  10.840
 4971SOL    HW216921   8.375   3.824  10.954
 4972SOL     OW16922   0.397   7.585  10.455
 4972SOL    HW116923   0.414   7.522  10.384
 4972SOL    HW216924   0.365   7.531  10.527
 4973SOL     OW16925   1.102   4.174   8.365
 4973SOL    HW116926   1.075   4.235   8.433
 4973SOL    HW216927   1.156   4.109   8.410
 4974SOL     OW16928   9.631   1.796   7.913
 4974SOL    HW116929   9.583   1.724   7.954
 4974SOL    HW216930   9.563   1.857   7.884
 4975SOL     OW16931   1.869   7.628   0.023
 4975SOL    HW116932   1.811   7.586  -0.040
 4975SOL    HW216933   1.926   7.684  -0.029
 4976SOL     OW16934   2.401   2.590   0.300
 4976SOL    HW116935   2.330   2.619   0.356
 4976SOL    HW216936   2.435   2.511   0.342
 4977SOL     OW16937   1.529   3.176  10.913
 4977SOL    HW116938   1.604   3.224  10.877
 4977SOL    HW216939   1.458   3.191  10.850
 4978SOL     OW16940   3.026   3.855  10.472
 4978SOL    HW116941   3.042   3.949  10.464
 4978SOL    HW216942   3.099   3.814  10.426
 4979SOL     OW16943   2.201   9.168   4.409
 4979SOL    HW116944   2.187   9.259   4.434
 4979SOL    HW216945   2.227   9.124   4.490
 4980SOL     OW16946   6.777   5.799   1.125
 4980SOL    HW116947   6.778   5.892   1.105
 4980SOL    HW216948   6.806   5.757   1.044
 4981SOL     OW16949   3.792   4.344   7.127
 4981SOL    HW116950   3.858   4.413   7.131
 4981SOL    HW216951   3.792   4.305   7.214
 4982SOL     OW16952   8.166   6.869  10.572
 4982SOL    HW116953   8.076   6.867  10.604
 4982SOL    HW216954   8.218   6.897  10.647
 4983SOL     OW16955   8.041   4.987  10.696
 4983SOL    HW116956   8.093   4.960  10.771
 4983SOL    HW216957   7.951   4.988  10.728
 4984SOL     OW16958   3.248   4.264   2.085
 4984SOL    HW116959   3.154   4.250   2.091
 4984SOL    HW216960   3.258   4.359   2.084
 4985SOL     OW16961  10.517   1.175   9.146
 4985SOL    HW116962  10.436   1.190   9.195
 4985SOL    HW216963  10.527   1.252   9.091
 4986SOL     OW16964   1.531   7.265   0.656
 4986SOL    HW116965   1.467   7.314   0.708
 4986SOL    HW216966   1.495   7.266   0.567
 4987SOL     OW16967   1.304   7.986   1.267
 4987SOL    HW116968   1.251   7.930   1.324
 4987SOL    HW216969   1.248   8.061   1.248
 4988SOL     OW16970   6.413   9.855   5.033
 4988SOL    HW116971   6.455   9.940   5.024
 4988SOL    HW216972   6.330   9.864   4.987
 4989SOL     OW16973   2.578   4.965   3.187
 4989SOL    HW116974   2.483   4.961   3.176
 4989SOL    HW216975   2.591   5.011   3.270
 4990SOL     OW16976   0.966   6.865   2.705
 4990SOL    HW116977   0.992   6.813   2.629
 4990SOL    HW216978   1.025   6.836   2.775
 4991SOL     OW16979   3.981   4.457   0.869
 4991SOL    HW116980   3.984   4.361   0.867
 4991SOL    HW216981   4.016   4.484   0.784
 4992SOL     OW16982   9.553   6.338   9.371
 4992SOL    HW116983   9.633   6.335   9.424
 4992SOL    HW216984   9.539   6.431   9.353
 4993SOL     OW16985   8.814   3.279   9.008
 4993SOL    HW116986   8.721   3.281   9.029
 4993SOL    HW216987   8.850   3.212   9.066
 4994SOL     OW16988   4.335   9.268   0.045
 4994SOL    HW116989   4.260   9.217   0.077
 4994SOL    HW216990   4.408   9.241   0.101
 4995SOL     OW16991   1.016   1.101   9.916
 4995SOL    HW116992   0.938   1.049   9.896
 4995SOL    HW216993   1.058   1.054   9.988
 4996SOL     OW16994   7.698   3.980   8.528
 4996SOL    HW116995   7.789   3.954   8.541
 4996SOL    HW216996   7.657   3.904   8.487
 4997SOL     OW16997   1.227   5.793   9.855
 4997SOL    HW116998   1.160   5.826   9.915
 4997SOL    HW216999   1.248   5.867   9.799
 4998SOL     OW17000  11.058   0.735   2.007
 4998SOL    HW117001  11.112   0.803   2.047
 4998SOL    HW217002  11.074   0.657   2.060
 4999SOL     OW17003   2.330   6.493   8.628
 4999SOL    HW117004   2.406   6.505   8.570
 4999SOL    HW217005   2.349   6.413   8.677
 5000SOL     OW17006   7.592   1.052   3.483
 5000SOL    HW117007   7.666   1.091   3.436
 5000SOL    HW217008   7.579   1.108   3.559
 5001SOL     OW17009   9.539   0.945   7.788
 5001SOL    HW117010   9.544   0.878   7.720
 5001SOL    HW217011   9.471   1.005   7.758
 5002SOL     OW17012   0.627   8.854   1.563
 5002SOL    HW117013   0.647   8.945   1.582
 5002SOL    HW217014   0.532   8.850   1.560
 5003SOL     OW17015   8.018   8.772   7.414
 5003SOL    HW117016   8.082   8.843   7.420
 5003SOL    HW217017   7.976   8.769   7.500
 5004SOL     OW17018   8.450   9.799   8.335
 5004SOL    HW117019   8.480   9.826   8.248
 5004SOL    HW217020   8.355   9.808   8.331
 5005SOL     OW17021   3.318   5.255   3.952
 5005SOL    HW117022   3.337   5.276   3.860
 5005SOL    HW217023   3.284   5.336   3.989
 5006SOL     OW17024   4.961   4.198  10.223
 5006SOL    HW117025   4.992   4.276  10.177
 5006SOL    HW217026   4.991   4.125  10.169
 5007SOL     OW17027   1.719   4.027   0.984
 5007SOL    HW117028   1.786   3.997   0.921
 5007SOL    HW217029   1.641   4.040   0.931
 5008SOL     OW17030   1.414   2.590   8.001
 5008SOL    HW117031   1.324   2.613   7.979
 5008SOL    HW217032   1.447   2.666   8.049
 5009SOL     OW17033   0.309   2.098   6.499
 5009SOL    HW117034   0.273   2.073   6.584
 5009SOL    HW217035   0.236   2.086   6.437
 5010SOL     OW17036   8.710  10.558  10.075
 5010SOL    HW117037   8.714  10.483  10.134
 5010SOL    HW217038   8.736  10.633  10.128
 5011SOL     OW17039   5.369   4.768   9.759
 5011SOL    HW117040   5.326   4.837   9.808
 5011SOL    HW217041   5.457   4.762   9.797
 5012SOL     OW17042   8.728   9.725   1.718
 5012SOL    HW117043   8.674   9.712   1.639
 5012SOL    HW217044   8.758   9.815   1.712
 5013SOL     OW17045   1.956   1.527   4.579
 5013SOL    HW117046   2.004   1.607   4.599
 5013SOL    HW217047   1.878   1.532   4.633
 5014SOL     OW17048   5.436   8.502   9.989
 5014SOL    HW117049   5.388   8.479  10.068
 5014SOL    HW217050   5.431   8.423   9.935
 5015SOL     OW17051   1.284   6.679   6.272
 5015SOL    HW117052   1.227   6.653   6.344
 5015SOL    HW217053   1.364   6.627   6.284
 5016SOL     OW17054   0.942   5.591   8.058
 5016SOL    HW117055   0.904   5.503   8.065
 5016SOL    HW217056   1.018   5.580   8.000
 5017SOL     OW17057   0.911   2.600   5.800
 5017SOL    HW117058   0.823   2.593   5.763
 5017SOL    HW217059   0.956   2.521   5.770
 5018SOL     OW17060   7.117  10.542   9.425
 5018SOL    HW117061   7.170  10.619   9.403
 5018SOL    HW217062   7.040  10.550   9.369
 5019SOL     OW17063   9.899   7.286   0.498
 5019SOL    HW117064   9.854   7.364   0.530
 5019SOL    HW217065   9.991   7.301   0.519
 5020SOL     OW17066   3.093   3.373   6.417
 5020SOL    HW117067   3.075   3.283   6.445
 5020SOL    HW217068   3.189   3.380   6.420
 5021SOL     OW17069   1.508   3.041   9.519
 5021SOL    HW117070   1.531   3.087   9.600
 5021SOL    HW217071   1.561   3.083   9.451
 5022SOL     OW17072   1.214   7.780   9.518
 5022SOL    HW117073   1.177   7.692   9.512
 5022SOL    HW217074   1.304   7.770   9.486
 5023SOL     OW17075   6.246   1.125   8.710
 5023SOL    HW117076   6.340   1.127   8.729
 5023SOL    HW217077   6.229   1.034   8.683
 5024SOL     OW17078   2.123   8.177   3.139
 5024SOL    HW117079   2.079   8.155   3.221
 5024SOL    HW217080   2.140   8.092   3.098
 5025SOL     OW17081   4.809  11.099   2.257
 5025SOL    HW117082   4.798  11.134   2.345
 5025SOL    HW217083   4.871  11.027   2.267
 5026SOL     OW17084   6.508   6.926  10.898
 5026SOL    HW117085   6.431   6.876  10.925
 5026SOL    HW217086   6.577   6.900  10.959
 5027SOL     OW17087   7.829   4.486   2.585
 5027SOL    HW117088   7.864   4.510   2.670
 5027SOL    HW217089   7.802   4.569   2.545
 5028SOL     OW17090   0.226   4.457   4.885
 5028SOL    HW117091   0.143   4.468   4.931
 5028SOL    HW217092   0.222   4.520   4.813
 5029SOL     OW17093   7.285   9.335   3.455
 5029SOL    HW117094   7.283   9.264   3.519
 5029SOL    HW217095   7.376   9.338   3.426
 5030SOL     OW17096  10.242   9.145   9.246
 5030SOL    HW117097  10.315   9.158   9.306
 5030SOL    HW217098  10.169   9.119   9.302
 5031SOL     OW17099   4.462   5.292   9.699
 5031SOL    HW117100   4.458   5.335   9.613
 5031SOL    HW217101   4.415   5.351   9.758
 5032SOL     OW17102   9.191   5.481   6.561
 5032SOL    HW117103   9.220   5.440   6.642
 5032SOL    HW217104   9.193   5.410   6.496
 5033SOL     OW17105   7.018   4.238   1.630
 5033SOL    HW117106   7.109   4.259   1.609
 5033SOL    HW217107   6.973   4.322   1.629
 5034SOL     OW17108   7.865   2.022   6.771
 5034SOL    HW117109   7.816   1.962   6.827
 5034SOL    HW217110   7.865   1.979   6.685
 5035SOL     OW17111   2.318   9.994   9.336
 5035SOL    HW117112   2.275  10.058   9.279
 5035SOL    HW217113   2.411  10.014   9.328
 5036SOL     OW17114   6.962   3.752   1.097
 5036SOL    HW117115   7.019   3.690   1.051
 5036SOL    HW217116   6.900   3.697   1.144
 5037SOL     OW17117   9.131   1.624   5.120
 5037SOL    HW117118   9.129   1.648   5.212
 5037SOL    HW217119   9.212   1.662   5.087
 5038SOL     OW17120   2.574  10.815   2.625
 5038SOL    HW117121   2.553  10.739   2.570
 5038SOL    HW217122   2.595  10.884   2.562
 5039SOL     OW17123   2.374   4.365   7.421
 5039SOL    HW117124   2.409   4.452   7.401
 5039SOL    HW217125   2.449   4.317   7.458
 5040SOL     OW17126  10.711   3.529   6.325
 5040SOL    HW117127  10.705   3.485   6.410
 5040SOL    HW217128  10.711   3.622   6.346
 5041SOL     OW17129   0.627   3.826   1.827
 5041SOL    HW117130   0.710   3.823   1.874
 5041SOL    HW217131   0.640   3.892   1.759
 5042SOL     OW17132   4.720   7.137   0.058
 5042SOL    HW117133   4.700   7.049   0.026
 5042SOL    HW217134   4.675   7.143   0.142
 5043SOL     OW17135   3.988   1.445   9.683
 5043SOL    HW117136   4.070   1.396   9.673
 5043SOL    HW217137   4.016   1.533   9.707
 5044SOL     OW17138   9.994   8.496   0.514
 5044SOL    HW117139  10.052   8.540   0.576
 5044SOL    HW217140  10.051   8.435   0.466
 5045SOL     OW17141   8.180   4.135   0.686
 5045SOL    HW117142   8.267   4.170   0.705
 5045SOL    HW217143   8.190   4.040   0.695
 5046SOL     OW17144   1.921   5.691   0.190
 5046SOL    HW117145   1.987   5.694   0.121
 5046SOL    HW217146   1.969   5.712   0.271
 5047SOL     OW17147   4.163   9.575   5.928
 5047SOL    HW117148   4.078   9.598   5.964
 5047SOL    HW217149   4.145   9.554   5.836
 5048SOL     OW17150   0.604   4.982   2.343
 5048SOL    HW117151   0.554   4.933   2.408
 5048SOL    HW217152   0.662   5.038   2.394
 5049SOL     OW17153   1.186   7.591   8.348
 5049SOL    HW117154   1.260   7.636   8.307
 5049SOL    HW217155   1.182   7.506   8.303
 5050SOL     OW17156   4.882   5.718   2.070
 5050SOL    HW117157   4.830   5.657   2.017
 5050SOL    HW217158   4.930   5.770   2.006
 5051SOL     OW17159   3.486   8.535   8.786
 5051SOL    HW117160   3.448   8.485   8.713
 5051SOL    HW217161   3.483   8.626   8.757
 5052SOL     OW17162   7.912   8.535   1.511
 5052SOL    HW117163   7.861   8.571   1.583
 5052SOL    HW217164   7.870   8.569   1.432
 5053SOL     OW17165   1.399   4.773   7.068
 5053SOL    HW117166   1.418   4.855   7.022
 5053SOL    HW217167   1.471   4.763   7.130
 5054SOL     OW17168   5.568   6.505   9.390
 5054SOL    HW117169   5.585   6.585   9.340
 5054SOL    HW217170   5.639   6.446   9.364
 5055SOL     OW17171   7.784   8.683   7.567
 5055SOL    HW117172   7.744   8.757   7.612
 5055SOL    HW217173   7.714   8.649   7.511
 5056SOL     OW17174   3.521   5.254   2.334
 5056SOL    HW117175   3.465   5.255   2.411
 5056SOL    HW217176   3.607   5.229   2.367
 5057SOL     OW17177   0.223   7.816   2.525
 5057SOL    HW117178   0.241   7.839   2.616
 5057SOL    HW217179   0.240   7.896   2.476
 5058SOL     OW17180   9.481   3.544   7.872
 5058SOL    HW117181   9.472   3.563   7.778
 5058SOL    HW217182   9.393   3.520   7.900
 5059SOL     OW17183  10.846   6.487   0.869
 5059SOL    HW117184  10.851   6.406   0.818
 5059SOL    HW217185  10.801   6.462   0.949
 5060SOL     OW17186   4.116   8.277   2.188
 5060SOL    HW117187   4.121   8.280   2.283
 5060SOL    HW217188   4.082   8.189   2.168
 5061SOL     OW17189   4.376  10.644   8.986
 5061SOL    HW117190   4.313  10.700   9.031
 5061SOL    HW217191   4.350  10.647   8.894
 5062SOL     OW17192   1.068   3.835   3.656
 5062SOL    HW117193   1.057   3.811   3.748
 5062SOL    HW217194   0.980   3.833   3.619
 5063SOL     OW17195   0.934  10.234   1.328
 5063SOL    HW117196   0.962  10.323   1.347
 5063SOL    HW217197   0.839  10.237   1.334
 5064SOL     OW17198  11.050   7.516   0.362
 5064SOL    HW117199  11.137   7.491   0.394
 5064SOL    HW217200  11.059   7.608   0.339
 5065SOL     OW17201   1.296   6.450   8.584
 5065SOL    HW117202   1.371   6.394   8.603
 5065SOL    HW217203   1.326   6.506   8.512
 5066SOL     OW17204   2.886   3.982   0.006
 5066SOL    HW117205   2.854   4.048  -0.055
 5066SOL    HW217206   2.892   4.027   0.090
 5067SOL     OW17207   7.554   2.523   6.740
 5067SOL    HW117208   7.615   2.458   6.775
 5067SOL    HW217209   7.573   2.525   6.646
 5068SOL     OW17210   9.206   2.208   2.249
 5068SOL    HW117211   9.141   2.171   2.189
 5068SOL    HW217212   9.178   2.180   2.336
 5069SOL     OW17213   7.402   9.112   7.007
 5069SOL    HW117214   7.384   9.122   6.913
 5069SOL    HW217215   7.402   9.017   7.020
 5070SOL     OW17216   2.448   4.511  11.024
 5070SOL    HW117217   2.463   4.537  11.115
 5070SOL    HW217218   2.403   4.586  10.985
 5071SOL     OW17219   9.809   3.449   6.597
 5071SOL    HW117220   9.779   3.358   6.597
 5071SOL    HW217221   9.868   3.455   6.672
 5072SOL     OW17222   0.122   8.063   3.021
 5072SOL    HW117223   0.028   8.053   3.040
 5072SOL    HW217224   0.166   8.030   3.099
 5073SOL     OW17225  10.612   6.554   8.956
 5073SOL    HW117226  10.692   6.594   8.989
 5073SOL    HW217227  10.619   6.563   8.861
 5074SOL     OW17228  10.332  10.210  11.000
 5074SOL    HW117229  10.375  10.212  10.914
 5074SOL    HW217230  10.399  10.175  11.059
 5075SOL     OW17231  10.462   4.489   0.832
 5075SOL    HW117232  10.389   4.535   0.874
 5075SOL    HW217233  10.519   4.558   0.800
 5076SOL     OW17234   1.692   0.806  10.267
 5076SOL    HW117235   1.704   0.848  10.182
 5076SOL    HW217236   1.715   0.714  10.252
 5077SOL     OW17237  10.376   9.839   5.649
 5077SOL    HW117238  10.363   9.745   5.633
 5077SOL    HW217239  10.295   9.880   5.619
 5078SOL     OW17240   1.018   6.273   2.677
 5078SOL    HW117241   1.094   6.324   2.649
 5078SOL    HW217242   1.022   6.275   2.772
 5079SOL     OW17243   3.954   4.884   2.109
 5079SOL    HW117244   3.873   4.843   2.140
 5079SOL    HW217245   3.927   4.936   2.033
 5080SOL     OW17246   3.604   2.976   1.731
 5080SOL    HW117247   3.519   3.010   1.758
 5080SOL    HW217248   3.583   2.908   1.667
 5081SOL     OW17249   3.168   3.740   4.048
 5081SOL    HW117250   3.219   3.659   4.045
 5081SOL    HW217251   3.219   3.802   3.996
 5082SOL     OW17252   3.860  10.261   9.978
 5082SOL    HW117253   3.824  10.196  10.038
 5082SOL    HW217254   3.784  10.313   9.951
 5083SOL     OW17255   0.082   7.628   7.656
 5083SOL    HW117256   0.137   7.571   7.709
 5083SOL    HW217257   0.018   7.664   7.717
 5084SOL     OW17258   0.677  10.156   2.571
 5084SOL    HW117259   0.648  10.110   2.650
 5084SOL    HW217260   0.670  10.090   2.501
 5085SOL     OW17261   7.236   9.592   3.825
 5085SOL    HW117262   7.185   9.572   3.903
 5085SOL    HW217263   7.195   9.670   3.788
 5086SOL     OW17264   5.782   0.980   2.281
 5086SOL    HW117265   5.733   1.062   2.278
 5086SOL    HW217266   5.738   0.923   2.218
 5087SOL     OW17267   4.551   8.135   3.250
 5087SOL    HW117268   4.471   8.120   3.199
 5087SOL    HW217269   4.616   8.077   3.210
 5088SOL     OW17270   9.364   6.653   8.219
 5088SOL    HW117271   9.302   6.607   8.162
 5088SOL    HW217272   9.434   6.589   8.234
 5089SOL     OW17273   8.547  10.242   2.323
 5089SOL    HW117274   8.481  10.216   2.386
 5089SOL    HW217275   8.503  10.234   2.238
 5090SOL     OW17276   8.391   6.751   1.432
 5090SOL    HW117277   8.474   6.781   1.394
 5090SOL    HW217278   8.324   6.786   1.373
 5091SOL     OW17279   4.521   7.348   0.589
 5091SOL    HW117280   4.475   7.362   0.506
 5091SOL    HW217281   4.538   7.436   0.622
 5092SOL     OW17282   3.978   7.235  10.755
 5092SOL    HW117283   4.070   7.252  10.735
 5092SOL    HW217284   3.937   7.321  10.756
 5093SOL     OW17285   9.877   1.585   8.699
 5093SOL    HW117286   9.889   1.499   8.657
 5093SOL    HW217287   9.814   1.630   8.643
 5094SOL     OW17288   6.124   0.949   0.785
 5094SOL    HW117289   6.205   0.900   0.771
 5094SOL    HW217290   6.070   0.891   0.838
 5095SOL     OW17291   8.685   7.212   9.168
 5095SOL    HW117292   8.716   7.258   9.090
 5095SOL    HW217293   8.592   7.235   9.174
 5096SOL     OW17294   4.622   0.750   7.329
 5096SOL    HW117295   4.626   0.751   7.424
 5096SOL    HW217296   4.714   0.742   7.301
 5097SOL     OW17297   0.165   4.156   5.957
 5097SOL    HW117298   0.189   4.196   6.040
 5097SOL    HW217299   0.205   4.211   5.890
 5098SOL     OW17300   1.791   7.915   3.860
 5098SOL    HW117301   1.875   7.870   3.874
 5098SOL    HW217302   1.748   7.863   3.792
 5099SOL     OW17303   3.677   3.265   9.038
 5099SOL    HW117304   3.655   3.210   9.113
 5099SOL    HW217305   3.627   3.227   8.965
 5100SOL     OW17306   9.421   0.443   9.679
 5100SOL    HW117307   9.366   0.520   9.670
 5100SOL    HW217308   9.428   0.408   9.590
 5101SOL     OW17309   8.874   4.920  10.488
 5101SOL    HW117310   8.843   4.880  10.406
 5101SOL    HW217311   8.955   4.965  10.464
 5102SOL     OW17312   3.697   1.383   9.349
 5102SOL    HW117313   3.790   1.380   9.324
 5102SOL    HW217314   3.682   1.300   9.394
 5103SOL     OW17315   4.842   7.649   4.602
 5103SOL    HW117316   4.852   7.726   4.546
 5103SOL    HW217317   4.753   7.618   4.585
 5104SOL     OW17318   8.661   5.985   4.712
 5104SOL    HW117319   8.720   6.008   4.640
 5104SOL    HW217320   8.576   5.974   4.670
 5105SOL     OW17321   3.882   3.759   7.483
 5105SOL    HW117322   3.849   3.827   7.542
 5105SOL    HW217323   3.804   3.712   7.453
 5106SOL     OW17324   2.192   0.233   7.255
 5106SOL    HW117325   2.188   0.166   7.186
 5106SOL    HW217326   2.107   0.275   7.252
 5107SOL     OW17327   2.181  10.306   7.312
 5107SOL    HW117328   2.262  10.339   7.351
 5107SOL    HW217329   2.129  10.384   7.295
 5108SOL     OW17330   6.435   4.599   1.401
 5108SOL    HW117331   6.401   4.672   1.452
 5108SOL    HW217332   6.455   4.531   1.465
 5109SOL     OW17333   2.619   6.788   1.856
 5109SOL    HW117334   2.561   6.717   1.828
 5109SOL    HW217335   2.578   6.824   1.934
 5110SOL     OW17336   6.159   7.869   2.006
 5110SOL    HW117337   6.090   7.935   2.013
 5110SOL    HW217338   6.131   7.813   1.933
 5111SOL     OW17339   7.062   3.950   0.130
 5111SOL    HW117340   7.050   3.929   0.038
 5111SOL    HW217341   7.070   4.045   0.132
 5112SOL     OW17342   3.000  10.419  10.766
 5112SOL    HW117343   3.064  10.406  10.835
 5112SOL    HW217344   2.946  10.492  10.796
 5113SOL     OW17345   3.858   8.409   2.395
 5113SOL    HW117346   3.844   8.471   2.466
 5113SOL    HW217347   3.931   8.354   2.425
 5114SOL     OW17348  10.854   5.128   4.310
 5114SOL    HW117349  10.876   5.217   4.335
 5114SOL    HW217350  10.829   5.085   4.392
 5115SOL     OW17351   9.309   4.303   2.184
 5115SOL    HW117352   9.285   4.213   2.160
 5115SOL    HW217353   9.266   4.318   2.268
 5116SOL     OW17354   7.732   1.312   7.485
 5116SOL    HW117355   7.682   1.245   7.438
 5116SOL    HW217356   7.721   1.289   7.577
 5117SOL     OW17357   9.596   1.215   6.667
 5117SOL    HW117358   9.537   1.287   6.689
 5117SOL    HW217359   9.538   1.143   6.642
 5118SOL     OW17360   8.426   6.425   6.096
 5118SOL    HW117361   8.489   6.478   6.047
 5118SOL    HW217362   8.372   6.384   6.028
 5119SOL     OW17363   2.441  10.346   5.621
 5119SOL    HW117364   2.369  10.347   5.558
 5119SOL    HW217365   2.402  10.378   5.702
 5120SOL     OW17366  10.396   2.359   3.992
 5120SOL    HW117367  10.449   2.329   3.918
 5120SOL    HW217368  10.456   2.413   4.044
 5121SOL     OW17369   2.947   8.071   4.908
 5121SOL    HW117370   2.879   8.137   4.896
 5121SOL    HW217371   2.936   8.040   4.998
 5122SOL     OW17372   2.321   9.739   9.426
 5122SOL    HW117373   2.310   9.811   9.364
 5122SOL    HW217374   2.397   9.764   9.479
 5123SOL     OW17375   4.560   7.287   0.902
 5123SOL    HW117376   4.486   7.255   0.850
 5123SOL    HW217377   4.606   7.347   0.843
 5124SOL     OW17378   8.544   5.735   3.321
 5124SOL    HW117379   8.626   5.704   3.283
 5124SOL    HW217380   8.567   5.817   3.363
 5125SOL     OW17381  10.075   9.997   3.718
 5125SOL    HW117382  10.110  10.061   3.656
 5125SOL    HW217383   9.983   9.987   3.692
 5126SOL     OW17384   6.506   9.691   7.523
 5126SOL    HW117385   6.497   9.693   7.618
 5126SOL    HW217386   6.427   9.734   7.490
 5127SOL     OW17387   4.217  10.072   6.852
 5127SOL    HW117388   4.202   9.978   6.840
 5127SOL    HW217389   4.158  10.096   6.923
 5128SOL     OW17390   4.360  10.002   9.977
 5128SOL    HW117391   4.277   9.978   9.935
 5128SOL    HW217392   4.384   9.924  10.028
 5129SOL     OW17393  10.396   5.008   4.379
 5129SOL    HW117394  10.359   4.969   4.458
 5129SOL    HW217395  10.462   5.069   4.411
 5130SOL     OW17396  10.245   9.893   4.670
 5130SOL    HW117397  10.244   9.970   4.727
 5130SOL    HW217398  10.275   9.926   4.585
 5131SOL     OW17399   4.733   2.645   8.199
 5131SOL    HW117400   4.714   2.727   8.243
 5131SOL    HW217401   4.771   2.671   8.115
 5132SOL     OW17402   3.557   6.802   7.558
 5132SOL    HW117403   3.619   6.729   7.562
 5132SOL    HW217404   3.472   6.760   7.545
 5133SOL     OW17405   2.844   3.539   5.342
 5133SOL    HW117406   2.800   3.461   5.376
 5133SOL    HW217407   2.820   3.542   5.249
 5134SOL     OW17408   6.980   8.833   7.350
 5134SOL    HW117409   6.975   8.801   7.260
 5134SOL    HW217410   6.891   8.860   7.371
 5135SOL     OW17411   4.261   4.857   8.270
 5135SOL    HW117412   4.286   4.844   8.361
 5135SOL    HW217413   4.338   4.898   8.230
 5136SOL     OW17414   1.129   6.265   5.906
 5136SOL    HW117415   1.174   6.183   5.883
 5136SOL    HW217416   1.183   6.334   5.868
 5137SOL     OW17417   2.902   3.108   6.734
 5137SOL    HW117418   2.815   3.071   6.747
 5137SOL    HW217419   2.910   3.176   6.801
 5138SOL     OW17420   8.998   9.604   8.665
 5138SOL    HW117421   8.969   9.602   8.756
 5138SOL    HW217422   9.073   9.544   8.662
 5139SOL     OW17423   4.336   6.199   9.906
 5139SOL    HW117424   4.282   6.270   9.871
 5139SOL    HW217425   4.342   6.135   9.834
 5140SOL     OW17426   7.076   4.618   1.519
 5140SOL    HW117427   7.029   4.596   1.599
 5140SOL    HW217428   7.033   4.697   1.486
 5141SOL     OW17429   3.269   2.565   8.582
 5141SOL    HW117430   3.314   2.493   8.626
 5141SOL    HW217431   3.189   2.577   8.632
 5142SOL     OW17432   0.396   8.004   9.746
 5142SOL    HW117433   0.409   8.050   9.663
 5142SOL    HW217434   0.484   7.990   9.780
 5143SOL     OW17435   4.006   2.291   4.661
 5143SOL    HW117436   4.023   2.355   4.592
 5143SOL    HW217437   3.950   2.337   4.723
 5144SOL     OW17438   2.781   5.270   4.432
 5144SOL    HW117439   2.797   5.231   4.345
 5144SOL    HW217440   2.835   5.349   4.433
 5145SOL     OW17441   4.314   9.578   3.866
 5145SOL    HW117442   4.226   9.550   3.892
 5145SOL    HW217443   4.373   9.527   3.921
 5146SOL     OW17444   0.912   4.402   7.906
 5146SOL    HW117445   0.911   4.308   7.884
 5146SOL    HW217446   1.002   4.418   7.935
 5147SOL     OW17447   1.816  11.032   2.766
 5147SOL    HW117448   1.772  11.117   2.765
 5147SOL    HW217449   1.759  10.975   2.714
 5148SOL     OW17450   0.876   8.981   5.807
 5148SOL    HW117451   0.954   8.947   5.763
 5148SOL    HW217452   0.910   9.041   5.873
 5149SOL     OW17453   5.271   8.856   9.390
 5149SOL    HW117454   5.298   8.892   9.474
 5149SOL    HW217455   5.352   8.853   9.338
 5150SOL     OW17456   2.864   6.764   2.043
 5150SOL    HW117457   2.817   6.772   1.960
 5150SOL    HW217458   2.797   6.737   2.106
 5151SOL     OW17459   2.612   9.927   3.056
 5151SOL    HW117460   2.587   9.933   3.148
 5151SOL    HW217461   2.581  10.008   3.017
 5152SOL     OW17462   8.188   0.256   8.266
 5152SOL    HW117463   8.163   0.163   8.262
 5152SOL    HW217464   8.111   0.300   8.301
 5153SOL     OW17465   0.127  10.136   3.249
 5153SOL    HW117466   0.211  10.094   3.231
 5153SOL    HW217467   0.149  10.227   3.267
 5154SOL     OW17468  10.827   7.423   0.224
 5154SOL    HW117469  10.899   7.450   0.281
 5154SOL    HW217470  10.860   7.344   0.181
 5155SOL     OW17471   1.888   5.154   9.295
 5155SOL    HW117472   1.824   5.120   9.232
 5155SOL    HW217473   1.870   5.248   9.299
 5156SOL     OW17474   4.527  10.175   3.345
 5156SOL    HW117475   4.456  10.113   3.360
 5156SOL    HW217476   4.581  10.169   3.424
 5157SOL     OW17477   1.542  10.484  10.445
 5157SOL    HW117478   1.459  10.479  10.398
 5157SOL    HW217479   1.566  10.393  10.460
 5158SOL     OW17480   4.206   1.688   1.254
 5158SOL    HW117481   4.194   1.780   1.231
 5158SOL    HW217482   4.262   1.653   1.184
 5159SOL     OW17483   8.009   5.214  10.542
 5159SOL    HW117484   7.961   5.194  10.461
 5159SOL    HW217485   8.034   5.128  10.576
 5160SOL     OW17486   1.342  10.177   4.844
 5160SOL    HW117487   1.401  10.240   4.802
 5160SOL    HW217488   1.309  10.124   4.771
 5161SOL     OW17489   5.561   5.856  11.010
 5161SOL    HW117490   5.562   5.884  11.101
 5161SOL    HW217491   5.652   5.863  10.982
 5162SOL     OW17492   4.937   8.608   1.974
 5162SOL    HW117493   4.862   8.667   1.976
 5162SOL    HW217494   4.905   8.530   1.929
 5163SOL     OW17495   1.335   5.334   0.649
 5163SOL    HW117496   1.323   5.349   0.742
 5163SOL    HW217497   1.420   5.374   0.629
 5164SOL     OW17498   8.786   3.784  11.082
 5164SOL    HW117499   8.840   3.785  11.161
 5164SOL    HW217500   8.807   3.866  11.037
 5165SOL     OW17501   7.406   7.923   7.939
 5165SOL    HW117502   7.427   8.011   7.910
 5165SOL    HW217503   7.332   7.896   7.884
 5166SOL     OW17504   0.055   9.773   0.658
 5166SOL    HW117505   0.132   9.778   0.714
 5166SOL    HW217506   0.006   9.853   0.676
 5167SOL     OW17507   4.005   5.321  10.822
 5167SOL    HW117508   4.004   5.397  10.879
 5167SOL    HW217509   4.074   5.340  10.758
 5168SOL     OW17510   3.486   6.632   1.650
 5168SOL    HW117511   3.492   6.582   1.568
 5168SOL    HW217512   3.547   6.587   1.709
 5169SOL     OW17513   9.415   8.886   1.886
 5169SOL    HW117514   9.350   8.816   1.876
 5169SOL    HW217515   9.395   8.925   1.971
 5170SOL     OW17516   0.392   0.875   4.727
 5170SOL    HW117517   0.438   0.865   4.643
 5170SOL    HW217518   0.412   0.964   4.755
 5171SOL     OW17519   7.288  10.494   1.099
 5171SOL    HW117520   7.259  10.541   1.177
 5171SOL    HW217521   7.267  10.402   1.117
 5172SOL     OW17522   9.968  10.748   1.351
 5172SOL    HW117523   9.924  10.682   1.298
 5172SOL    HW217524   9.958  10.829   1.301
 5173SOL     OW17525   0.752  10.200   8.032
 5173SOL    HW117526   0.719  10.227   7.946
 5173SOL    HW217527   0.811  10.270   8.059
 5174SOL     OW17528   0.078   1.873   5.926
 5174SOL    HW117529   0.119   1.924   5.856
 5174SOL    HW217530  -0.003   1.840   5.887
 5175SOL     OW17531  10.388   3.474   8.000
 5175SOL    HW117532  10.314   3.507   8.051
 5175SOL    HW217533  10.462   3.478   8.060
 5176SOL     OW17534   2.614   3.538   1.047
 5176SOL    HW117535   2.704   3.543   1.078
 5176SOL    HW217536   2.591   3.628   1.026
 5177SOL     OW17537   2.376   4.674   0.168
 5177SOL    HW117538   2.400   4.759   0.205
 5177SOL    HW217539   2.459   4.628   0.158
 5178SOL     OW17540   8.768   8.010   7.995
 5178SOL    HW117541   8.779   7.952   7.919
 5178SOL    HW217542   8.832   8.080   7.981
 5179SOL     OW17543   2.074   8.057   6.823
 5179SOL    HW117544   2.110   8.016   6.744
 5179SOL    HW217545   2.133   8.029   6.893
 5180SOL     OW17546   8.782   8.349   3.203
 5180SOL    HW117547   8.854   8.387   3.153
 5180SOL    HW217548   8.825   8.288   3.263
 5181SOL     OW17549   8.235   8.804   0.021
 5181SOL    HW117550   8.231   8.896  -0.005
 5181SOL    HW217551   8.232   8.806   0.117
 5182SOL     OW17552   9.686   5.391  10.493
 5182SOL    HW117553   9.673   5.407  10.586
 5182SOL    HW217554   9.738   5.465  10.462
 5183SOL     OW17555   1.512  10.952   7.346
 5183SOL    HW117556   1.428  10.974   7.386
 5183SOL    HW217557   1.505  10.985   7.256
 5184SOL     OW17558   2.504   2.734   6.282
 5184SOL    HW117559   2.567   2.790   6.236
 5184SOL    HW217560   2.491   2.659   6.223
 5185SOL     OW17561  10.185   2.119   2.250
 5185SOL    HW117562  10.089   2.119   2.249
 5185SOL    HW217563  10.208   2.038   2.296
 5186SOL     OW17564   2.610   9.866   4.230
 5186SOL    HW117565   2.633   9.837   4.141
 5186SOL    HW217566   2.612   9.785   4.282
 5187SOL     OW17567   1.454   1.517   7.267
 5187SOL    HW117568   1.526   1.498   7.206
 5187SOL    HW217569   1.396   1.576   7.218
 5188SOL     OW17570   3.891   1.107   4.116
 5188SOL    HW117571   3.862   1.046   4.048
 5188SOL    HW217572   3.929   1.180   4.068
 5189SOL     OW17573   5.074   7.095   0.165
 5189SOL    HW117574   5.024   7.051   0.096
 5189SOL    HW217575   5.152   7.040   0.176
 5190SOL     OW17576   6.908   6.186   7.016
 5190SOL    HW117577   6.978   6.237   7.057
 5190SOL    HW217578   6.940   6.096   7.017
 5191SOL     OW17579   8.356   6.949   3.793
 5191SOL    HW117580   8.355   7.020   3.857
 5191SOL    HW217581   8.266   6.944   3.760
 5192SOL     OW17582   4.627   0.095   8.414
 5192SOL    HW117583   4.703   0.084   8.356
 5192SOL    HW217584   4.663   0.091   8.502
 5193SOL     OW17585   2.126   5.014   9.318
 5193SOL    HW117586   2.054   5.075   9.334
 5193SOL    HW217587   2.083   4.933   9.290
 5194SOL     OW17588   8.339   7.521   5.727
 5194SOL    HW117589   8.307   7.431   5.719
 5194SOL    HW217590   8.321   7.545   5.818
 5195SOL     OW17591   0.024   9.181   1.071
 5195SOL    HW117592   0.100   9.195   1.127
 5195SOL    HW217593   0.004   9.267   1.036
 5196SOL     OW17594   1.699   7.623   2.083
 5196SOL    HW117595   1.682   7.669   2.001
 5196SOL    HW217596   1.794   7.631   2.095
 5197SOL     OW17597   2.039   2.910   3.453
 5197SOL    HW117598   1.970   2.963   3.493
 5197SOL    HW217599   2.060   2.844   3.519
 5198SOL     OW17600   4.721   5.878   7.352
 5198SOL    HW117601   4.701   5.951   7.294
 5198SOL    HW217602   4.637   5.833   7.363
 5199SOL     OW17603   1.598   6.854   1.877
 5199SOL    HW117604   1.633   6.844   1.965
 5199SOL    HW217605   1.503   6.849   1.888
 5200SOL     OW17606  10.306   6.189   1.162
 5200SOL    HW117607  10.347   6.112   1.122
 5200SOL    HW217608  10.277   6.159   1.248
 5201SOL     OW17609   0.096   8.883   5.482
 5201SOL    HW117610   0.086   8.971   5.447
 5201SOL    HW217611   0.174   8.887   5.537
 5202SOL     OW17612  10.426   1.604  10.126
 5202SOL    HW117613  10.349   1.549  10.138
 5202SOL    HW217614  10.448   1.594  10.033
 5203SOL     OW17615   6.085   0.623   1.842
 5203SOL    HW117616   6.104   0.565   1.916
 5203SOL    HW217617   6.075   0.709   1.881
 5204SOL     OW17618  10.422   1.516   7.608
 5204SOL    HW117619  10.429   1.443   7.670
 5204SOL    HW217620  10.390   1.476   7.527
 5205SOL     OW17621   8.556   8.392   4.282
 5205SOL    HW117622   8.537   8.453   4.211
 5205SOL    HW217623   8.471   8.372   4.320
 5206SOL     OW17624   4.639   1.008   2.308
 5206SOL    HW117625   4.597   1.055   2.236
 5206SOL    HW217626   4.588   1.030   2.385
 5207SOL     OW17627   9.765   6.296   0.968
 5207SOL    HW117628   9.834   6.232   0.986
 5207SOL    HW217629   9.684   6.248   0.986
 5208SOL     OW17630   8.280   4.652   3.114
 5208SOL    HW117631   8.191   4.621   3.131
 5208SOL    HW217632   8.277   4.686   3.024
 5209SOL     OW17633   1.354   2.034   0.550
 5209SOL    HW117634   1.406   2.057   0.627
 5209SOL    HW217635   1.318   2.117   0.519
 5210SOL     OW17636   4.457   5.557  10.354
 5210SOL    HW117637   4.466   5.633  10.410
 5210SOL    HW217638   4.444   5.484  10.414
 5211SOL     OW17639  10.448   7.881   7.143
 5211SOL    HW117640  10.471   7.789   7.126
 5211SOL    HW217641  10.374   7.898   7.085
 5212SOL     OW17642  10.760   3.083   4.561
 5212SOL    HW117643  10.818   3.024   4.512
 5212SOL    HW217644  10.730   3.030   4.635
 5213SOL     OW17645   1.075   1.542   7.081
 5213SOL    HW117646   1.084   1.579   6.993
 5213SOL    HW217647   1.150   1.577   7.129
 5214SOL     OW17648  11.057   4.236   0.542
 5214SOL    HW117649  11.091   4.146   0.542
 5214SOL    HW217650  11.129   4.288   0.507
 5215SOL     OW17651   1.653   5.936   5.525
 5215SOL    HW117652   1.716   5.891   5.582
 5215SOL    HW217653   1.663   5.893   5.440
 5216SOL     OW17654   6.137   8.051   2.557
 5216SOL    HW117655   6.202   7.983   2.538
 5216SOL    HW217656   6.151   8.118   2.490
 5217SOL     OW17657   7.223   6.702   1.911
 5217SOL    HW117658   7.250   6.745   1.830
 5217SOL    HW217659   7.173   6.768   1.958
 5218SOL     OW17660   6.101   7.207   9.454
 5218SOL    HW117661   6.078   7.293   9.420
 5218SOL    HW217662   6.017   7.164   9.470
 5219SOL     OW17663   3.744   4.848   5.281
 5219SOL    HW117664   3.694   4.888   5.351
 5219SOL    HW217665   3.785   4.771   5.321
 5220SOL     OW17666   3.477   5.225   6.244
 5220SOL    HW117667   3.490   5.282   6.320
 5220SOL    HW217668   3.473   5.136   6.280
 5221SOL     OW17669   0.622   2.603   2.532
 5221SOL    HW117670   0.708   2.560   2.537
 5221SOL    HW217671   0.635   2.675   2.470
 5222SOL     OW17672   0.609   8.171   1.126
 5222SOL    HW117673   0.517   8.158   1.147
 5222SOL    HW217674   0.623   8.118   1.047
 5223SOL     OW17675   1.381   6.830   3.832
 5223SOL    HW117676   1.290   6.801   3.826
 5223SOL    HW217677   1.396   6.879   3.751
 5224SOL     OW17678   6.174   0.175   5.795
 5224SOL    HW117679   6.188   0.268   5.779
 5224SOL    HW217680   6.237   0.131   5.737
 5225SOL     OW17681   3.879  10.595   8.403
 5225SOL    HW117682   3.872  10.621   8.495
 5225SOL    HW217683   3.865  10.500   8.404
 5226SOL     OW17684   3.917  10.205   0.284
 5226SOL    HW117685   3.887  10.295   0.292
 5226SOL    HW217686   3.909  10.185   0.190
 5227SOL     OW17687  10.808   5.642   5.964
 5227SOL    HW117688  10.859   5.561   5.966
 5227SOL    HW217689  10.736   5.623   5.903
 5228SOL     OW17690   1.304   5.663   3.351
 5228SOL    HW117691   1.231   5.698   3.299
 5228SOL    HW217692   1.354   5.610   3.289
 5229SOL     OW17693   7.594  10.358   5.935
 5229SOL    HW117694   7.666  10.420   5.924
 5229SOL    HW217695   7.608  10.293   5.866
 5230SOL     OW17696  10.120   8.546   6.373
 5230SOL    HW117697  10.078   8.608   6.314
 5230SOL    HW217698  10.078   8.560   6.457
 5231SOL     OW17699  10.778   7.600   5.991
 5231SOL    HW117700  10.767   7.675   6.049
 5231SOL    HW217701  10.757   7.634   5.904
 5232SOL     OW17702   5.147   5.982  10.644
 5232SOL    HW117703   5.131   5.954  10.734
 5232SOL    HW217704   5.130   5.903  10.592
 5233SOL     OW17705   2.930   4.337   2.635
 5233SOL    HW117706   2.889   4.268   2.582
 5233SOL    HW217707   3.024   4.320   2.627
 5234SOL     OW17708   6.130   1.032   4.680
 5234SOL    HW117709   6.072   1.090   4.728
 5234SOL    HW217710   6.170   0.976   4.747
 5235SOL     OW17711   0.322   7.661   2.931
 5235SOL    HW117712   0.376   7.663   2.852
 5235SOL    HW217713   0.344   7.577   2.972
 5236SOL     OW17714   1.818  10.205   3.433
 5236SOL    HW117715   1.906  10.240   3.449
 5236SOL    HW217716   1.769  10.278   3.396
 5237SOL     OW17717   9.619   7.315   2.433
 5237SOL    HW117718   9.594   7.224   2.452
 5237SOL    HW217719   9.614   7.321   2.337
 5238SOL     OW17720   9.838   1.630  10.854
 5238SOL    HW117721   9.781   1.686  10.906
 5238SOL    HW217722   9.880   1.572  10.917
 5239SOL     OW17723   2.332   6.749  10.705
 5239SOL    HW117724   2.385   6.766  10.627
 5239SOL    HW217725   2.281   6.829  10.717
 5240SOL     OW17726   3.690   7.347   1.192
 5240SOL    HW117727   3.711   7.326   1.283
 5240SOL    HW217728   3.662   7.263   1.154
 5241SOL     OW17729   8.965   7.268   2.413
 5241SOL    HW117730   8.971   7.192   2.355
 5241SOL    HW217731   8.905   7.240   2.482
 5242SOL     OW17732   5.320   8.690   0.448
 5242SOL    HW117733   5.411   8.683   0.476
 5242SOL    HW217734   5.275   8.730   0.522
 5243SOL     OW17735   4.815   7.013   0.791
 5243SOL    HW117736   4.908   7.005   0.811
 5243SOL    HW217737   4.771   6.963   0.860
 5244SOL     OW17738  10.839   6.304   0.309
 5244SOL    HW117739  10.768   6.247   0.280
 5244SOL    HW217740  10.871   6.345   0.228
 5245SOL     OW17741   2.444   7.418  10.089
 5245SOL    HW117742   2.357   7.456  10.102
 5245SOL    HW217743   2.501   7.467  10.148
 5246SOL     OW17744   4.321   2.438   7.565
 5246SOL    HW117745   4.274   2.456   7.646
 5246SOL    HW217746   4.377   2.363   7.585
 5247SOL     OW17747   8.778   5.174   1.074
 5247SOL    HW117748   8.773   5.269   1.083
 5247SOL    HW217749   8.689   5.143   1.090
 5248SOL     OW17750   1.783   9.479  10.630
 5248SOL    HW117751   1.740   9.487  10.545
 5248SOL    HW217752   1.847   9.409  10.617
 5249SOL     OW17753   8.755   9.419   8.617
 5249SOL    HW117754   8.743   9.507   8.582
 5249SOL    HW217755   8.741   9.361   8.542
 5250SOL     OW17756   3.566   9.131   0.455
 5250SOL    HW117757   3.578   9.116   0.549
 5250SOL    HW217758   3.490   9.077   0.431
 5251SOL     OW17759   9.182  10.572   1.822
 5251SOL    HW117760   9.218  10.507   1.761
 5251SOL    HW217761   9.194  10.533   1.908
 5252SOL     OW17762   6.868   8.746   3.435
 5252SOL    HW117763   6.862   8.676   3.369
 5252SOL    HW217764   6.827   8.821   3.392
 5253SOL     OW17765   0.663   9.014   1.292
 5253SOL    HW117766   0.613   9.031   1.371
 5253SOL    HW217767   0.598   9.015   1.221
 5254SOL     OW17768   0.901   1.309   4.090
 5254SOL    HW117769   0.825   1.318   4.032
 5254SOL    HW217770   0.972   1.279   4.032
 5255SOL     OW17771   2.978   3.243   3.068
 5255SOL    HW117772   3.064   3.230   3.026
 5255SOL    HW217773   2.987   3.324   3.118
 5256SOL     OW17774   3.680   9.266   3.733
 5256SOL    HW117775   3.719   9.308   3.656
 5256SOL    HW217776   3.586   9.269   3.717
 5257SOL     OW17777   8.363   1.535  10.799
 5257SOL    HW117778   8.343   1.625  10.823
 5257SOL    HW217779   8.413   1.542  10.717
 5258SOL     OW17780   1.273   5.948   1.540
 5258SOL    HW117781   1.251   5.876   1.599
 5258SOL    HW217782   1.275   6.025   1.596
 5259SOL     OW17783   9.917   0.617   2.566
 5259SOL    HW117784   9.938   0.708   2.546
 5259SOL    HW217785   9.998   0.569   2.547
 5260SOL     OW17786  10.450   1.479   2.472
 5260SOL    HW117787  10.437   1.429   2.552
 5260SOL    HW217788  10.450   1.570   2.500
 5261SOL     OW17789   5.071   1.876  10.712
 5261SOL    HW117790   5.037   1.864  10.623
 5261SOL    HW217791   5.071   1.971  10.725
 5262SOL     OW17792   7.283   9.515  10.367
 5262SOL    HW117793   7.354   9.578  10.355
 5262SOL    HW217794   7.255   9.494  10.278
 5263SOL     OW17795   3.621  11.092  10.686
 5263SOL    HW117796   3.626  11.152  10.611
 5263SOL    HW217797   3.644  11.006  10.649
 5264SOL     OW17798   8.623   7.756   6.008
 5264SOL    HW117799   8.609   7.804   5.926
 5264SOL    HW217800   8.588   7.668   5.990
 5265SOL     OW17801   9.128  10.238   3.984
 5265SOL    HW117802   9.107  10.325   4.017
 5265SOL    HW217803   9.205  10.251   3.929
 5266SOL     OW17804   5.327   1.106   0.890
 5266SOL    HW117805   5.338   1.046   0.964
 5266SOL    HW217806   5.369   1.060   0.817
 5267SOL     OW17807   9.114   8.456   2.446
 5267SOL    HW117808   9.091   8.520   2.512
 5267SOL    HW217809   9.210   8.457   2.444
 5268SOL     OW17810   3.537   7.682  10.224
 5268SOL    HW117811   3.455   7.635  10.209
 5268SOL    HW217812   3.510   7.771  10.245
 5269SOL     OW17813  10.400   6.329   0.312
 5269SOL    HW117814  10.413   6.325   0.406
 5269SOL    HW217815  10.470   6.274   0.275
 5270SOL     OW17816   8.426   0.815   2.131
 5270SOL    HW117817   8.447   0.735   2.180
 5270SOL    HW217818   8.479   0.883   2.172
 5271SOL     OW17819   1.784   6.383   8.424
 5271SOL    HW117820   1.866   6.418   8.459
 5271SOL    HW217821   1.767   6.434   8.345
 5272SOL     OW17822   0.890   3.693   3.955
 5272SOL    HW117823   0.840   3.633   4.011
 5272SOL    HW217824   0.831   3.767   3.940
 5273SOL     OW17825   5.404   7.446   2.058
 5273SOL    HW117826   5.386   7.372   2.116
 5273SOL    HW217827   5.499   7.442   2.043
 5274SOL     OW17828   3.560   9.194   2.971
 5274SOL    HW117829   3.522   9.155   2.892
 5274SOL    HW217830   3.639   9.238   2.940
 5275SOL     OW17831   8.539   9.679   4.830
 5275SOL    HW117832   8.473   9.746   4.848
 5275SOL    HW217833   8.583   9.664   4.913
 5276SOL     OW17834   2.552   9.354   1.912
 5276SOL    HW117835   2.581   9.263   1.903
 5276SOL    HW217836   2.586   9.398   1.834
 5277SOL     OW17837   3.662  11.021   0.961
 5277SOL    HW117838   3.726  11.063   1.019
 5277SOL    HW217839   3.712  11.001   0.881
 5278SOL     OW17840   2.064   7.791   2.821
 5278SOL    HW117841   2.141   7.833   2.859
 5278SOL    HW217842   2.069   7.812   2.727
 5279SOL     OW17843   2.733   5.029   0.084
 5279SOL    HW117844   2.672   5.079   0.138
 5279SOL    HW217845   2.680   4.995   0.012
 5280SOL     OW17846   2.397   7.305   0.876
 5280SOL    HW117847   2.338   7.319   0.802
 5280SOL    HW217848   2.362   7.227   0.919
 5281SOL     OW17849   9.797   7.468   1.325
 5281SOL    HW117850   9.761   7.430   1.244
 5281SOL    HW217851   9.723   7.468   1.386
 5282SOL     OW17852   1.430  10.975   6.009
 5282SOL    HW117853   1.437  11.063   5.973
 5282SOL    HW217854   1.359  10.980   6.073
 5283SOL     OW17855   1.379  10.698   0.336
 5283SOL    HW117856   1.399  10.624   0.278
 5283SOL    HW217857   1.285  10.713   0.324
 5284SOL     OW17858   4.656   5.782   2.931
 5284SOL    HW117859   4.710   5.853   2.965
 5284SOL    HW217860   4.715   5.706   2.930
 5285SOL     OW17861   8.278  10.607   0.444
 5285SOL    HW117862   8.289  10.679   0.506
 5285SOL    HW217863   8.222  10.544   0.489
 5286SOL     OW17864   2.204  10.925  10.866
 5286SOL    HW117865   2.271  10.884  10.811
 5286SOL    HW217866   2.201  10.871  10.945
 5287SOL     OW17867   5.340   7.163   0.515
 5287SOL    HW117868   5.248   7.136   0.515
 5287SOL    HW217869   5.339   7.253   0.483
 5288SOL     OW17870   1.073   5.220   1.620
 5288SOL    HW117871   1.149   5.271   1.593
 5288SOL    HW217872   1.108   5.158   1.684
 5289SOL     OW17873   3.407   4.033   0.309
 5289SOL    HW117874   3.455   3.952   0.327
 5289SOL    HW217875   3.475   4.098   0.293
 5290SOL     OW17876   5.196   7.989   0.158
 5290SOL    HW117877   5.276   8.036   0.135
 5290SOL    HW217878   5.154   7.971   0.074
 5291SOL     OW17879   6.951   2.009   9.390
 5291SOL    HW117880   7.021   2.027   9.327
 5291SOL    HW217881   6.876   1.986   9.335
 5292SOL     OW17882   4.784   0.994   1.898
 5292SOL    HW117883   4.867   1.040   1.914
 5292SOL    HW217884   4.809   0.917   1.846
 5293SOL     OW17885   1.239   3.025   2.780
 5293SOL    HW117886   1.307   3.005   2.844
 5293SOL    HW217887   1.287   3.048   2.700
 5294SOL     OW17888   1.612   0.276   1.413
 5294SOL    HW117889   1.658   0.296   1.331
 5294SOL    HW217890   1.526   0.317   1.403
 5295SOL     OW17891   8.971   4.369   7.505
 5295SOL    HW117892   8.998   4.453   7.540
 5295SOL    HW217893   9.044   4.310   7.524
 5296SOL     OW17894  10.024   4.769   4.540
 5296SOL    HW117895  10.074   4.814   4.607
 5296SOL    HW217896  10.075   4.782   4.460
 5297SOL     OW17897   2.888   4.068   4.112
 5297SOL    HW117898   2.801   4.063   4.152
 5297SOL    HW217899   2.907   4.161   4.106
 5298SOL     OW17900   0.871   4.099   2.502
 5298SOL    HW117901   0.966   4.101   2.515
 5298SOL    HW217902   0.838   4.170   2.556
 5299SOL     OW17903   0.065   4.494   1.872
 5299SOL    HW117904   0.019   4.556   1.928
 5299SOL    HW217905   0.155   4.495   1.904
 5300SOL     OW17906   4.705  10.743   8.242
 5300SOL    HW117907   4.775  10.680   8.257
 5300SOL    HW217908   4.674  10.723   8.153
 5301SOL     OW17909   8.573   8.746   9.994
 5301SOL    HW117910   8.662   8.767   9.964
 5301SOL    HW217911   8.528   8.716   9.915
 5302SOL     OW17912   1.930   4.573   0.946
 5302SOL    HW117913   2.004   4.630   0.964
 5302SOL    HW217914   1.955   4.527   0.866
 5303SOL     OW17915   4.431   7.432   2.970
 5303SOL    HW117916   4.387   7.376   3.034
 5303SOL    HW217917   4.360   7.482   2.929
 5304SOL     OW17918  10.503   2.762   6.737
 5304SOL    HW117919  10.408   2.752   6.727
 5304SOL    HW217920  10.525   2.709   6.814
 5305SOL     OW17921  10.370   4.022   3.163
 5305SOL    HW117922  10.286   3.980   3.183
 5305SOL    HW217923  10.382   4.008   3.069
 5306SOL     OW17924   0.796   8.639   1.685
 5306SOL    HW117925   0.735   8.589   1.631
 5306SOL    HW217926   0.759   8.727   1.687
 5307SOL     OW17927   1.348   1.256   5.962
 5307SOL    HW117928   1.440   1.229   5.967
 5307SOL    HW217929   1.332   1.303   6.043
 5308SOL     OW17930   3.354   7.446   3.350
 5308SOL    HW117931   3.282   7.509   3.347
 5308SOL    HW217932   3.402   7.468   3.430
 5309SOL     OW17933   1.100   0.667   1.305
 5309SOL    HW117934   1.049   0.672   1.224
 5309SOL    HW217935   1.105   0.573   1.324
 5310SOL     OW17936   5.061   4.745   1.129
 5310SOL    HW117937   5.117   4.696   1.069
 5310SOL    HW217938   5.000   4.679   1.163
 5311SOL     OW17939   7.244   7.481   0.415
 5311SOL    HW117940   7.226   7.388   0.431
 5311SOL    HW217941   7.233   7.491   0.320
 5312SOL     OW17942   0.917   3.050   3.809
 5312SOL    HW117943   0.884   2.997   3.736
 5312SOL    HW217944   0.892   3.001   3.887
 5313SOL     OW17945   5.301   8.322   9.794
 5313SOL    HW117946   5.233   8.284   9.849
 5313SOL    HW217947   5.273   8.412   9.780
 5314SOL     OW17948   8.028   9.423   1.695
 5314SOL    HW117949   7.996   9.507   1.726
 5314SOL    HW217950   8.082   9.390   1.767
 5315SOL     OW17951   5.470   7.711   3.851
 5315SOL    HW117952   5.532   7.650   3.891
 5315SOL    HW217953   5.408   7.731   3.921
 5316SOL     OW17954   8.460   6.988   7.043
 5316SOL    HW117955   8.460   6.901   7.083
 5316SOL    HW217956   8.421   6.975   6.956
 5317SOL     OW17957   4.347   0.187   1.144
 5317SOL    HW117958   4.403   0.259   1.117
 5317SOL    HW217959   4.399   0.108   1.127
 5318SOL     OW17960   1.676   6.532  11.028
 5318SOL    HW117961   1.714   6.520  11.115
 5318SOL    HW217962   1.587   6.564  11.045
 5319SOL     OW17963   9.312   4.783   9.570
 5319SOL    HW117964   9.254   4.727   9.517
 5319SOL    HW217965   9.365   4.721   9.620
 5320SOL     OW17966   3.921   9.243   1.884
 5320SOL    HW117967   3.914   9.278   1.972
 5320SOL    HW217968   3.958   9.155   1.896
 5321SOL     OW17969   3.450   8.560   9.622
 5321SOL    HW117970   3.464   8.642   9.575
 5321SOL    HW217971   3.355   8.555   9.634
 5322SOL     OW17972   2.542   1.559   0.481
 5322SOL    HW117973   2.484   1.597   0.546
 5322SOL    HW217974   2.497   1.479   0.453
 5323SOL     OW17975   0.011   7.642   2.610
 5323SOL    HW117976   0.083   7.704   2.610
 5323SOL    HW217977   0.004   7.614   2.518
 5324SOL     OW17978   3.305   3.625   7.945
 5324SOL    HW117979   3.350   3.704   7.917
 5324SOL    HW217980   3.319   3.622   8.039
 5325SOL     OW17981   6.239   5.969   0.304
 5325SOL    HW117982   6.246   6.026   0.228
 5325SOL    HW217983   6.228   6.028   0.378
 5326SOL     OW17984   4.122   3.561   6.691
 5326SOL    HW117985   4.165   3.563   6.605
 5326SOL    HW217986   4.061   3.634   6.689
 5327SOL     OW17987   8.221   1.394   4.977
 5327SOL    HW117988   8.148   1.432   4.928
 5327SOL    HW217989   8.249   1.464   5.036
 5328SOL     OW17990   8.301   9.729  11.008
 5328SOL    HW117991   8.231   9.724  11.073
 5328SOL    HW217992   8.355   9.803  11.036
 5329SOL     OW17993   9.737   1.892   7.366
 5329SOL    HW117994   9.782   1.843   7.435
 5329SOL    HW217995   9.808   1.935   7.318
 5330SOL     OW17996   8.630   7.964   6.942
 5330SOL    HW117997   8.667   8.002   6.862
 5330SOL    HW217998   8.702   7.966   7.004
 5331SOL     OW17999   4.604   0.701   1.875
 5331SOL    HW118000   4.650   0.734   1.952
 5331SOL    HW218001   4.673   0.690   1.809
 5332SOL     OW18002   0.519  10.502   8.135
 5332SOL    HW118003   0.444  10.558   8.115
 5332SOL    HW218004   0.493  10.415   8.105
 5333SOL     OW18005   3.045   0.248   1.007
 5333SOL    HW118006   3.039   0.306   0.931
 5333SOL    HW218007   3.116   0.187   0.985
 5334SOL     OW18008   6.881   7.032  10.649
 5334SOL    HW118009   6.838   6.962  10.599
 5334SOL    HW218010   6.975   7.014  10.639
 5335SOL     OW18011  11.082   7.808   7.266
 5335SOL    HW118012  11.032   7.783   7.343
 5335SOL    HW218013  11.139   7.879   7.295
 5336SOL     OW18014   1.603   8.939  10.094
 5336SOL    HW118015   1.634   8.852  10.067
 5336SOL    HW218016   1.513   8.943  10.062
 5337SOL     OW18017   7.475   1.600   2.173
 5337SOL    HW118018   7.465   1.543   2.096
 5337SOL    HW218019   7.513   1.543   2.240
 5338SOL     OW18020   6.760   8.797   7.528
 5338SOL    HW118021   6.711   8.748   7.462
 5338SOL    HW218022   6.760   8.740   7.605
 5339SOL     OW18023   3.539   1.871   8.021
 5339SOL    HW118024   3.584   1.902   7.942
 5339SOL    HW218025   3.582   1.788   8.042
 5340SOL     OW18026   9.374   7.052   4.656
 5340SOL    HW118027   9.311   7.006   4.601
 5340SOL    HW218028   9.443   7.080   4.595
 5341SOL     OW18029   7.587   6.576   1.387
 5341SOL    HW118030   7.566   6.619   1.304
 5341SOL    HW218031   7.502   6.554   1.425
 5342SOL     OW18032  10.481   6.253   7.382
 5342SOL    HW118033  10.539   6.267   7.457
 5342SOL    HW218034  10.540   6.234   7.309
 5343SOL     OW18035   2.341   8.771   8.777
 5343SOL    HW118036   2.396   8.849   8.776
 5343SOL    HW218037   2.253   8.803   8.757
 5344SOL     OW18038   9.286  10.238  10.434
 5344SOL    HW118039   9.309  10.146  10.445
 5344SOL    HW218040   9.259  10.244  10.342
 5345SOL     OW18041   0.215   9.107   6.417
 5345SOL    HW118042   0.231   9.124   6.324
 5345SOL    HW218043   0.137   9.159   6.438
 5346SOL     OW18044   0.645   2.377   3.384
 5346SOL    HW118045   0.738   2.401   3.379
 5346SOL    HW218046   0.599   2.447   3.338
 5347SOL     OW18047   2.246   7.398   8.059
 5347SOL    HW118048   2.288   7.377   7.975
 5347SOL    HW218049   2.212   7.314   8.090
 5348SOL     OW18050   1.751   6.509   2.651
 5348SOL    HW118051   1.658   6.528   2.658
 5348SOL    HW218052   1.764   6.430   2.704
 5349SOL     OW18053  10.102   7.376   6.823
 5349SOL    HW118054  10.125   7.311   6.889
 5349SOL    HW218055  10.014   7.351   6.795
 5350SOL     OW18056   1.641   5.687   5.339
 5350SOL    HW118057   1.711   5.662   5.399
 5350SOL    HW218058   1.599   5.604   5.316
 5351SOL     OW18059   3.107   5.491   2.788
 5351SOL    HW118060   3.133   5.580   2.766
 5351SOL    HW218061   3.177   5.436   2.753
 5352SOL     OW18062   9.097   7.851   1.407
 5352SOL    HW118063   9.100   7.946   1.416
 5352SOL    HW218064   9.006   7.832   1.384
 5353SOL     OW18065   0.929   8.617   5.872
 5353SOL    HW118066   0.922   8.610   5.967
 5353SOL    HW218067   0.999   8.681   5.857
 5354SOL     OW18068   5.119  10.388   5.440
 5354SOL    HW118069   5.119  10.295   5.417
 5354SOL    HW218070   5.037  10.421   5.404
 5355SOL     OW18071   4.592   1.577   9.580
 5355SOL    HW118072   4.521   1.514   9.593
 5355SOL    HW218073   4.627   1.592   9.667
 5356SOL     OW18074   9.911   4.931   0.531
 5356SOL    HW118075   9.999   4.967   0.538
 5356SOL    HW218076   9.866   4.960   0.610
 5357SOL     OW18077  10.450   9.128   4.313
 5357SOL    HW118078  10.475   9.063   4.247
 5357SOL    HW218079  10.531   9.143   4.362
 5358SOL     OW18080  10.505   4.357   5.357
 5358SOL    HW118081  10.540   4.273   5.327
 5358SOL    HW218082  10.555   4.422   5.308
 5359SOL     OW18083   3.703   7.082   1.832
 5359SOL    HW118084   3.627   7.026   1.816
 5359SOL    HW218085   3.752   7.079   1.750
 5360SOL     OW18086  10.707   7.744   2.540
 5360SOL    HW118087  10.769   7.681   2.502
 5360SOL    HW218088  10.751   7.778   2.618
 5361SOL     OW18089   2.480   8.665  10.344
 5361SOL    HW118090   2.441   8.621  10.419
 5361SOL    HW218091   2.503   8.752  10.376
 5362SOL     OW18092   0.164   1.460   1.202
 5362SOL    HW118093   0.230   1.477   1.269
 5362SOL    HW218094   0.081   1.456   1.250
 5363SOL     OW18095   8.326   7.710   3.401
 5363SOL    HW118096   8.363   7.793   3.430
 5363SOL    HW218097   8.232   7.720   3.413
 5364SOL     OW18098   3.403   4.189   3.569
 5364SOL    HW118099   3.423   4.248   3.641
 5364SOL    HW218100   3.487   4.150   3.545
 5365SOL     OW18101   9.363   8.314  10.732
 5365SOL    HW118102   9.302   8.290  10.802
 5365SOL    HW218103   9.368   8.236  10.677
 5366SOL     OW18104   3.006   8.294   1.661
 5366SOL    HW118105   2.970   8.206   1.648
 5366SOL    HW218106   3.100   8.284   1.643
 5367SOL     OW18107   6.518   7.296   3.765
 5367SOL    HW118108   6.560   7.380   3.782
 5367SOL    HW218109   6.555   7.267   3.681
 5368SOL     OW18110   7.919   8.723   4.439
 5368SOL    HW118111   7.833   8.694   4.410
 5368SOL    HW218112   7.902   8.794   4.499
 5369SOL     OW18113   6.595   7.788   0.797
 5369SOL    HW118114   6.543   7.739   0.860
 5369SOL    HW218115   6.642   7.853   0.849
 5370SOL     OW18116   2.887   9.392   3.433
 5370SOL    HW118117   2.954   9.353   3.376
 5370SOL    HW218118   2.828   9.319   3.453
 5371SOL     OW18119   6.861   6.156   8.835
 5371SOL    HW118120   6.904   6.241   8.845
 5371SOL    HW218121   6.799   6.169   8.763
 5372SOL     OW18122   9.649   6.647   4.009
 5372SOL    HW118123   9.629   6.714   4.074
 5372SOL    HW218124   9.605   6.568   4.041
 5373SOL     OW18125  10.361   9.377   4.225
 5373SOL    HW118126  10.408   9.378   4.142
 5373SOL    HW218127  10.376   9.289   4.259
 5374SOL     OW18128   8.969   8.385   7.312
 5374SOL    HW118129   8.974   8.337   7.229
 5374SOL    HW218130   8.926   8.324   7.372
 5375SOL     OW18131   6.639   7.326   6.662
 5375SOL    HW118132   6.601   7.264   6.600
 5375SOL    HW218133   6.635   7.281   6.746
 5376SOL     OW18134   3.140   4.734   6.614
 5376SOL    HW118135   3.081   4.661   6.594
 5376SOL    HW218136   3.190   4.747   6.533
 5377SOL     OW18137   3.541  10.680   5.460
 5377SOL    HW118138   3.499  10.696   5.375
 5377SOL    HW218139   3.496  10.739   5.521
 5378SOL     OW18140   2.728   6.160   3.143
 5378SOL    HW118141   2.819   6.177   3.167
 5378SOL    HW218142   2.697   6.097   3.208
 5379SOL     OW18143   4.554   7.966   1.857
 5379SOL    HW118144   4.506   7.976   1.939
 5379SOL    HW218145   4.486   7.959   1.790
 5380SOL     OW18146  10.911   4.200   2.294
 5380SOL    HW118147  10.912   4.139   2.368
 5380SOL    HW218148  10.948   4.149   2.221
 5381SOL     OW18149   3.708   7.227   9.910
 5381SOL    HW118150   3.798   7.250   9.886
 5381SOL    HW218151   3.681   7.295   9.970
 5382SOL     OW18152   8.500   2.508   0.582
 5382SOL    HW118153   8.546   2.485   0.662
 5382SOL    HW218154   8.409   2.482   0.598
 5383SOL     OW18155   4.037   5.482   9.613
 5383SOL    HW118156   4.127   5.493   9.643
 5383SOL    HW218157   4.043   5.416   9.543
 5384SOL     OW18158   8.666   5.283  11.078
 5384SOL    HW118159   8.680   5.202  11.128
 5384SOL    HW218160   8.738   5.340  11.104
 5385SOL     OW18161   3.823   7.464   7.142
 5385SOL    HW118162   3.825   7.415   7.059
 5385SOL    HW218163   3.732   7.460   7.170
 5386SOL     OW18164   9.757   9.236   9.349
 5386SOL    HW118165   9.686   9.299   9.338
 5386SOL    HW218166   9.811   9.247   9.271
 5387SOL     OW18167   5.510   8.279   4.991
 5387SOL    HW118168   5.495   8.251   5.081
 5387SOL    HW218169   5.604   8.297   4.987
 5388SOL     OW18170   5.957  10.985  10.711
 5388SOL    HW118171   5.961  10.927  10.635
 5388SOL    HW218172   6.038  11.037  10.706
 5389SOL     OW18173   5.174   9.425  11.039
 5389SOL    HW118174   5.089   9.468  11.033
 5389SOL    HW218175   5.226   9.481  11.096
 5390SOL     OW18176   7.453  10.406   0.724
 5390SOL    HW118177   7.516  10.405   0.796
 5390SOL    HW218178   7.466  10.322   0.680
 5391SOL     OW18179   1.872   5.944   7.877
 5391SOL    HW118180   1.960   5.976   7.898
 5391SOL    HW218181   1.852   5.881   7.946
 5392SOL     OW18182   4.489   8.977   7.845
 5392SOL    HW118183   4.579   8.946   7.830
 5392SOL    HW218184   4.472   8.959   7.937
 5393SOL     OW18185   0.757   2.758   2.979
 5393SOL    HW118186   0.773   2.833   2.922
 5393SOL    HW218187   0.844   2.720   2.993
 5394SOL     OW18188   7.849   6.294  10.720
 5394SOL    HW118189   7.945   6.298  10.719
 5394SOL    HW218190   7.821   6.372  10.673
 5395SOL     OW18191   2.643   3.728   6.508
 5395SOL    HW118192   2.733   3.694   6.507
 5395SOL    HW218193   2.623   3.743   6.415
 5396SOL     OW18194   2.035  10.635   3.001
 5396SOL    HW118195   2.104  10.618   2.937
 5396SOL    HW218196   2.080  10.634   3.085
 5397SOL     OW18197   5.223  10.707   2.358
 5397SOL    HW118198   5.159  10.711   2.429
 5397SOL    HW218199   5.308  10.713   2.401
 5398SOL     OW18200   9.617   9.114  10.144
 5398SOL    HW118201   9.662   9.161  10.074
 5398SOL    HW218202   9.675   9.122  10.219
 5399SOL     OW18203  10.952   7.488   9.571
 5399SOL    HW118204  11.040   7.475   9.536
 5399SOL    HW218205  10.960   7.563   9.629
 5400SOL     OW18206   7.211   7.339   2.825
 5400SOL    HW118207   7.302   7.327   2.798
 5400SOL    HW218208   7.186   7.254   2.862
 5401SOL     OW18209   8.336   7.442   1.422
 5401SOL    HW118210   8.345   7.388   1.500
 5401SOL    HW218211   8.384   7.394   1.354
 5402SOL     OW18212   3.361   0.369   1.519
 5402SOL    HW118213   3.334   0.323   1.439
 5402SOL    HW218214   3.302   0.336   1.587
 5403SOL     OW18215   2.642   0.510   5.366
 5403SOL    HW118216   2.721   0.472   5.327
 5403SOL    HW218217   2.570   0.464   5.322
 5404SOL     OW18218  10.016   2.450   6.290
 5404SOL    HW118219   9.923   2.437   6.272
 5404SOL    HW218220  10.018   2.519   6.355
 5405SOL     OW18221   2.470   5.084   6.285
 5405SOL    HW118222   2.526   5.006   6.279
 5405SOL    HW218223   2.519   5.151   6.238
 5406SOL     OW18224   5.458   7.439   0.446
 5406SOL    HW118225   5.392   7.435   0.377
 5406SOL    HW218226   5.541   7.447   0.399
 5407SOL     OW18227   5.660   8.631   2.829
 5407SOL    HW118228   5.573   8.670   2.838
 5407SOL    HW218229   5.717   8.687   2.881
 5408SOL     OW18230   3.390   1.784   9.031
 5408SOL    HW118231   3.340   1.862   9.008
 5408SOL    HW218232   3.358   1.717   8.970
 5409SOL     OW18233   0.068   3.687   4.121
 5409SOL    HW118234  -0.003   3.734   4.165
 5409SOL    HW218235   0.091   3.616   4.181
 5410SOL     OW18236  10.224   5.278   5.408
 5410SOL    HW118237  10.145   5.323   5.436
 5410SOL    HW218238  10.236   5.305   5.317
 5411SOL     OW18239   9.289   9.424   4.248
 5411SOL    HW118240   9.270   9.358   4.315
 5411SOL    HW218241   9.227   9.495   4.265
 5412SOL     OW18242   7.370   5.573   0.804
 5412SOL    HW118243   7.361   5.591   0.710
 5412SOL    HW218244   7.324   5.490   0.816
 5413SOL     OW18245   2.846   8.923   2.953
 5413SOL    HW118246   2.899   8.866   2.896
 5413SOL    HW218247   2.756   8.899   2.933
 5414SOL     OW18248   1.135   7.990  10.845
 5414SOL    HW118249   1.164   7.926  10.910
 5414SOL    HW218250   1.180   8.071  10.868
 5415SOL     OW18251   6.390   3.230   3.001
 5415SOL    HW118252   6.419   3.144   3.033
 5415SOL    HW218253   6.336   3.265   3.071
 5416SOL     OW18254   9.664   3.610  10.896
 5416SOL    HW118255   9.569   3.600  10.898
 5416SOL    HW218256   9.687   3.648  10.981
 5417SOL     OW18257   4.155   5.076   2.572
 5417SOL    HW118258   4.230   5.123   2.537
 5417SOL    HW218259   4.193   5.005   2.624
 5418SOL     OW18260   6.871   8.439   3.317
 5418SOL    HW118261   6.948   8.465   3.368
 5418SOL    HW218262   6.844   8.355   3.355
 5419SOL     OW18263   9.386   9.314   0.835
 5419SOL    HW118264   9.312   9.254   0.825
 5419SOL    HW218265   9.451   9.283   0.772
 5420SOL     OW18266  10.770   8.743  10.973
 5420SOL    HW118267  10.851   8.762  10.925
 5420SOL    HW218268  10.710   8.812  10.946
 5421SOL     OW18269   0.151  10.763   2.643
 5421SOL    HW118270   0.217  10.717   2.695
 5421SOL    HW218271   0.148  10.715   2.560
 5422SOL     OW18272   8.433   7.441   4.589
 5422SOL    HW118273   8.528   7.426   4.594
 5422SOL    HW218274   8.395   7.355   4.607
 5423SOL     OW18275   0.803   1.467   0.229
 5423SOL    HW118276   0.841   1.549   0.261
 5423SOL    HW218277   0.742   1.440   0.298
 5424SOL     OW18278   3.551   2.764   4.185
 5424SOL    HW118279   3.500   2.759   4.266
 5424SOL    HW218280   3.640   2.786   4.214
 5425SOL     OW18281   5.465   8.805   4.524
 5425SOL    HW118282   5.442   8.804   4.431
 5425SOL    HW218283   5.403   8.744   4.565
 5426SOL     OW18284   0.060   7.962   1.122
 5426SOL    HW118285   0.049   7.981   1.215
 5426SOL    HW218286  -0.029   7.951   1.089
 5427SOL     OW18287  10.705   7.109   2.698
 5427SOL    HW118288  10.711   7.013   2.705
 5427SOL    HW218289  10.771   7.132   2.633
 5428SOL     OW18290   3.261   7.277   2.074
 5428SOL    HW118291   3.172   7.266   2.108
 5428SOL    HW218292   3.249   7.321   1.990
 5429SOL     OW18293   0.246   9.274   4.564
 5429SOL    HW118294   0.215   9.357   4.599
 5429SOL    HW218295   0.166   9.228   4.538
 5430SOL     OW18296   0.631   5.784   6.294
 5430SOL    HW118297   0.677   5.760   6.213
 5430SOL    HW218298   0.689   5.847   6.336
 5431SOL     OW18299   0.279   3.490   5.105
 5431SOL    HW118300   0.281   3.430   5.030
 5431SOL    HW218301   0.276   3.577   5.065
 5432SOL     OW18302   5.932  10.711   3.609
 5432SOL    HW118303   5.878  10.738   3.534
 5432SOL    HW218304   5.870  10.700   3.681
 5433SOL     OW18305   5.653   9.355  10.325
 5433SOL    HW118306   5.727   9.371  10.267
 5433SOL    HW218307   5.678   9.395  10.408
 5434SOL     OW18308   0.473  11.000   4.152
 5434SOL    HW118309   0.430  11.000   4.066
 5434SOL    HW218310   0.500  10.909   4.165
 5435SOL     OW18311   1.290   1.769   4.090
 5435SOL    HW118312   1.289   1.730   4.177
 5435SOL    HW218313   1.205   1.746   4.053
 5436SOL     OW18314   5.303   8.498   6.061
 5436SOL    HW118315   5.386   8.498   6.109
 5436SOL    HW218316   5.293   8.407   6.031
 5437SOL     OW18317   1.193   9.825  10.768
 5437SOL    HW118318   1.182   9.730  10.759
 5437SOL    HW218319   1.280   9.836  10.806
 5438SOL     OW18320   0.359   9.424   3.901
 5438SOL    HW118321   0.349   9.428   3.806
 5438SOL    HW218322   0.319   9.340   3.925
 5439SOL     OW18323   5.124  10.776   1.571
 5439SOL    HW118324   5.121  10.750   1.479
 5439SOL    HW218325   5.041  10.822   1.585
 5440SOL     OW18326   1.091   4.510   3.658
 5440SOL    HW118327   1.132   4.544   3.737
 5440SOL    HW218328   1.144   4.545   3.586
 5441SOL     OW18329   8.092   4.668  10.117
 5441SOL    HW118330   8.081   4.704  10.205
 5441SOL    HW218331   8.024   4.711  10.065
 5442SOL     OW18332   1.584   0.974   1.619
 5442SOL    HW118333   1.495   0.959   1.586
 5442SOL    HW218334   1.586   0.929   1.703
 5443SOL     OW18335   6.137   7.980   4.902
 5443SOL    HW118336   6.214   7.993   4.957
 5443SOL    HW218337   6.094   7.903   4.938
 5444SOL     OW18338   5.357   7.569   6.905
 5444SOL    HW118339   5.376   7.654   6.944
 5444SOL    HW218340   5.262   7.566   6.897
 5445SOL     OW18341   0.112   5.516   2.359
 5445SOL    HW118342   0.178   5.469   2.409
 5445SOL    HW218343   0.029   5.490   2.399
 5446SOL     OW18344   0.640   7.106   7.809
 5446SOL    HW118345   0.585   7.028   7.813
 5446SOL    HW218346   0.727   7.073   7.787
 5447SOL     OW18347   9.143   5.903   7.388
 5447SOL    HW118348   9.116   5.946   7.469
 5447SOL    HW218349   9.230   5.938   7.370
 5448SOL     OW18350  10.896   8.669   0.731
 5448SOL    HW118351  10.953   8.745   0.744
 5448SOL    HW218352  10.952   8.605   0.687
 5449SOL     OW18353   6.794   9.168   1.637
 5449SOL    HW118354   6.812   9.077   1.662
 5449SOL    HW218355   6.713   9.190   1.682
 5450SOL     OW18356   7.332   0.534   6.965
 5450SOL    HW118357   7.381   0.579   6.896
 5450SOL    HW218358   7.400   0.499   7.023
 5451SOL     OW18359   2.912   4.690   1.200
 5451SOL    HW118360   2.906   4.610   1.147
 5451SOL    HW218361   2.948   4.755   1.140
 5452SOL     OW18362   3.824   9.681   2.360
 5452SOL    HW118363   3.782   9.731   2.430
 5452SOL    HW218364   3.859   9.747   2.300
 5453SOL     OW18365   0.320   3.331   9.902
 5453SOL    HW118366   0.399   3.278   9.912
 5453SOL    HW218367   0.311   3.378   9.985
 5454SOL     OW18368   2.475   6.953   0.372
 5454SOL    HW118369   2.427   6.875   0.345
 5454SOL    HW218370   2.409   7.022   0.376
 5455SOL     OW18371   9.116   0.183   2.324
 5455SOL    HW118372   9.113   0.260   2.381
 5455SOL    HW218373   9.042   0.129   2.352
 5456SOL     OW18374   7.780  10.450   3.174
 5456SOL    HW118375   7.746  10.538   3.157
 5456SOL    HW218376   7.704  10.393   3.164
 5457SOL     OW18377   0.171   0.789   8.737
 5457SOL    HW118378   0.101   0.836   8.691
 5457SOL    HW218379   0.249   0.803   8.683
 5458SOL     OW18380   8.823   8.580   0.577
 5458SOL    HW118381   8.900   8.523   0.588
 5458SOL    HW218382   8.853   8.666   0.605
 5459SOL     OW18383   4.165  10.280   1.256
 5459SOL    HW118384   4.087  10.259   1.307
 5459SOL    HW218385   4.235  10.286   1.320
 5460SOL     OW18386   4.255   8.076   9.223
 5460SOL    HW118387   4.268   8.164   9.258
 5460SOL    HW218388   4.329   8.025   9.257
 5461SOL     OW18389   5.113   3.350   0.205
 5461SOL    HW118390   5.139   3.432   0.162
 5461SOL    HW218391   5.191   3.323   0.255
 5462SOL     OW18392   9.162   4.200   8.453
 5462SOL    HW118393   9.088   4.211   8.393
 5462SOL    HW218394   9.210   4.282   8.448
 5463SOL     OW18395   3.223   1.505   3.792
 5463SOL    HW118396   3.301   1.474   3.746
 5463SOL    HW218397   3.170   1.426   3.803
 5464SOL     OW18398  10.509   8.054   6.911
 5464SOL    HW118399  10.546   8.012   6.833
 5464SOL    HW218400  10.508   7.985   6.977
 5465SOL     OW18401   5.429   5.405   1.192
 5465SOL    HW118402   5.496   5.422   1.125
 5465SOL    HW218403   5.449   5.466   1.262
 5466SOL     OW18404   2.045   4.730   2.347
 5466SOL    HW118405   2.135   4.701   2.365
 5466SOL    HW218406   2.021   4.685   2.266
 5467SOL     OW18407   2.763   6.929  10.334
 5467SOL    HW118408   2.726   6.862  10.276
 5467SOL    HW218409   2.704   7.003  10.325
 5468SOL     OW18410  10.710   6.170   4.267
 5468SOL    HW118411  10.762   6.231   4.215
 5468SOL    HW218412  10.721   6.199   4.357
 5469SOL     OW18413   2.312   2.845   9.479
 5469SOL    HW118414   2.318   2.843   9.383
 5469SOL    HW218415   2.323   2.937   9.502
 5470SOL     OW18416   5.114   2.617   3.830
 5470SOL    HW118417   5.037   2.670   3.811
 5470SOL    HW218418   5.083   2.552   3.893
 5471SOL     OW18419   5.821   6.194   3.547
 5471SOL    HW118420   5.785   6.279   3.571
 5471SOL    HW218421   5.893   6.214   3.487
 5472SOL     OW18422   7.181   7.364   3.981
 5472SOL    HW118423   7.193   7.269   3.991
 5472SOL    HW218424   7.209   7.400   4.065
 5473SOL     OW18425   2.268   2.978   8.903
 5473SOL    HW118426   2.323   2.919   8.850
 5473SOL    HW218427   2.323   3.000   8.978
 5474SOL     OW18428   5.413   8.893   1.616
 5474SOL    HW118429   5.385   8.984   1.615
 5474SOL    HW218430   5.374   8.855   1.537
 5475SOL     OW18431   0.978   3.367  10.005
 5475SOL    HW118432   1.034   3.444  10.012
 5475SOL    HW218433   0.926   3.368  10.085
 5476SOL     OW18434  10.431   7.863   2.810
 5476SOL    HW118435  10.459   7.953   2.825
 5476SOL    HW218436  10.513   7.814   2.803
 5477SOL     OW18437   9.324   7.243   3.688
 5477SOL    HW118438   9.368   7.251   3.772
 5477SOL    HW218439   9.325   7.149   3.669
 5478SOL     OW18440   9.534   2.798   4.681
 5478SOL    HW118441   9.476   2.738   4.634
 5478SOL    HW218442   9.605   2.742   4.713
 5479SOL     OW18443   3.127  10.149   5.858
 5479SOL    HW118444   3.145  10.055   5.865
 5479SOL    HW218445   3.213  10.189   5.845
 5480SOL     OW18446  10.797   2.442  10.226
 5480SOL    HW118447  10.740   2.519  10.229
 5480SOL    HW218448  10.866   2.461  10.289
 5481SOL     OW18449   5.746   7.098   9.126
 5481SOL    HW118450   5.810   7.035   9.160
 5481SOL    HW218451   5.755   7.175   9.182
 5482SOL     OW18452   2.083   1.120   0.208
 5482SOL    HW118453   2.145   1.190   0.188
 5482SOL    HW218454   2.015   1.129   0.141
 5483SOL     OW18455  10.550   7.191   2.907
 5483SOL    HW118456  10.474   7.132   2.905
 5483SOL    HW218457  10.599   7.169   2.827
 5484SOL     OW18458  10.780   3.386   0.674
 5484SOL    HW118459  10.756   3.345   0.591
 5484SOL    HW218460  10.737   3.332   0.740
 5485SOL     OW18461   3.546   1.369   3.419
 5485SOL    HW118462   3.641   1.374   3.410
 5485SOL    HW218463   3.522   1.289   3.370
 5486SOL     OW18464   2.281   7.618   5.325
 5486SOL    HW118465   2.306   7.641   5.235
 5486SOL    HW218466   2.253   7.526   5.319
 5487SOL     OW18467   9.502   9.836   2.487
 5487SOL    HW118468   9.572   9.886   2.446
 5487SOL    HW218469   9.542   9.799   2.566
 5488SOL     OW18470   7.295   6.082  10.672
 5488SOL    HW118471   7.361   6.082  10.602
 5488SOL    HW218472   7.320   6.155  10.729
 5489SOL     OW18473  10.269   9.597   8.729
 5489SOL    HW118474  10.206   9.574   8.797
 5489SOL    HW218475  10.251   9.535   8.657
 5490SOL     OW18476   1.523   6.025   6.835
 5490SOL    HW118477   1.484   5.958   6.891
 5490SOL    HW218478   1.606   6.047   6.878
 5491SOL     OW18479  10.464   7.717   4.073
 5491SOL    HW118480  10.555   7.688   4.083
 5491SOL    HW218481  10.412   7.637   4.081
 5492SOL     OW18482   3.287   4.312   0.737
 5492SOL    HW118483   3.233   4.240   0.703
 5492SOL    HW218484   3.352   4.327   0.668
 5493SOL     OW18485   2.973   4.187   1.921
 5493SOL    HW118486   2.923   4.205   2.000
 5493SOL    HW218487   2.970   4.269   1.872
 5494SOL     OW18488   9.154   4.449   5.370
 5494SOL    HW118489   9.219   4.383   5.395
 5494SOL    HW218490   9.070   4.404   5.380
 5495SOL     OW18491  10.200   5.387   6.132
 5495SOL    HW118492  10.126   5.373   6.073
 5495SOL    HW218493  10.261   5.442   6.082
 5496SOL     OW18494   2.697   6.987   8.031
 5496SOL    HW118495   2.782   6.948   8.053
 5496SOL    HW218496   2.645   6.978   8.111
 5497SOL     OW18497   6.799   7.722   6.103
 5497SOL    HW118498   6.888   7.685   6.102
 5497SOL    HW218499   6.749   7.662   6.158
 5498SOL     OW18500   1.614   8.208   7.432
 5498SOL    HW118501   1.523   8.233   7.449
 5498SOL    HW218502   1.631   8.137   7.494
 5499SOL     OW18503   6.394   0.325   6.598
 5499SOL    HW118504   6.485   0.303   6.617
 5499SOL    HW218505   6.397   0.415   6.567
 5500SOL     OW18506  10.506   3.006   0.832
 5500SOL    HW118507  10.503   2.937   0.899
 5500SOL    HW218508  10.573   3.067   0.863
 5501SOL     OW18509  10.924   4.353   9.615
 5501SOL    HW118510  10.862   4.338   9.686
 5501SOL    HW218511  10.948   4.445   9.622
 5502SOL     OW18512   2.776   9.257   4.980
 5502SOL    HW118513   2.841   9.301   4.925
 5502SOL    HW218514   2.732   9.327   5.027
 5503SOL     OW18515   3.781   3.377   5.521
 5503SOL    HW118516   3.845   3.446   5.506
 5503SOL    HW218517   3.699   3.412   5.486
 5504SOL     OW18518   5.287   1.319   1.068
 5504SOL    HW118519   5.334   1.285   1.144
 5504SOL    HW218520   5.288   1.247   1.005
 5505SOL     OW18521   1.197   1.697   8.579
 5505SOL    HW118522   1.125   1.756   8.557
 5505SOL    HW218523   1.248   1.743   8.645
 5506SOL     OW18524   1.667   6.843   3.153
 5506SOL    HW118525   1.628   6.813   3.235
 5506SOL    HW218526   1.722   6.770   3.125
 5507SOL     OW18527  10.171   2.423   6.068
 5507SOL    HW118528  10.105   2.393   6.130
 5507SOL    HW218529  10.128   2.419   5.982
 5508SOL     OW18530   8.534   1.154   0.606
 5508SOL    HW118531   8.492   1.177   0.523
 5508SOL    HW218532   8.511   1.062   0.620
 5509SOL     OW18533   0.372   8.940   7.767
 5509SOL    HW118534   0.317   9.000   7.717
 5509SOL    HW218535   0.444   8.994   7.800
 5510SOL     OW18536   7.431   4.088   1.900
 5510SOL    HW118537   7.456   4.174   1.867
 5510SOL    HW218538   7.427   4.098   1.995
 5511SOL     OW18539   0.566   9.123   3.506
 5511SOL    HW118540   0.586   9.190   3.570
 5511SOL    HW218541   0.476   9.097   3.526
 5512SOL     OW18542  10.571   8.243   0.266
 5512SOL    HW118543  10.639   8.186   0.231
 5512SOL    HW218544  10.600   8.264   0.354
 5513SOL     OW18545   1.919   5.161   5.979
 5513SOL    HW118546   1.879   5.208   6.051
 5513SOL    HW218547   2.011   5.186   5.981
 5514SOL     OW18548   4.924   4.675   3.146
 5514SOL    HW118549   4.885   4.698   3.230
 5514SOL    HW218550   4.948   4.759   3.106
 5515SOL     OW18551   2.403  10.630   4.052
 5515SOL    HW118552   2.419  10.643   4.145
 5515SOL    HW218553   2.332  10.566   4.048
 5516SOL     OW18554   9.539  10.199   4.481
 5516SOL    HW118555   9.607  10.265   4.469
 5516SOL    HW218556   9.473  10.241   4.535
 5517SOL     OW18557   5.602  10.602   4.065
 5517SOL    HW118558   5.681  10.611   4.011
 5517SOL    HW218559   5.635  10.598   4.155
 5518SOL     OW18560   6.518   8.382   0.149
 5518SOL    HW118561   6.576   8.372   0.225
 5518SOL    HW218562   6.535   8.303   0.097
 5519SOL     OW18563   6.882   7.006   9.515
 5519SOL    HW118564   6.793   6.992   9.484
 5519SOL    HW218565   6.873   7.020   9.609
 5520SOL     OW18566  10.874   9.292   7.008
 5520SOL    HW118567  10.859   9.348   6.932
 5520SOL    HW218568  10.902   9.351   7.077
 5521SOL     OW18569   1.779   6.551   7.318
 5521SOL    HW118570   1.846   6.598   7.268
 5521SOL    HW218571   1.808   6.557   7.409
 5522SOL     OW18572   9.453   0.114   0.587
 5522SOL    HW118573   9.468   0.021   0.570
 5522SOL    HW218574   9.359   0.120   0.603
 5523SOL     OW18575   1.529  10.776   6.277
 5523SOL    HW118576   1.561  10.771   6.187
 5523SOL    HW218577   1.566  10.699   6.320
 5524SOL     OW18578   9.566   8.299   5.020
 5524SOL    HW118579   9.532   8.362   4.956
 5524SOL    HW218580   9.540   8.213   4.985
 5525SOL     OW18581   9.248   9.693   4.928
 5525SOL    HW118582   9.299   9.717   4.850
 5525SOL    HW218583   9.157   9.704   4.901
 5526SOL     OW18584   6.966   3.726   6.674
 5526SOL    HW118585   6.904   3.755   6.741
 5526SOL    HW218586   7.020   3.660   6.718
 5527SOL     OW18587  10.756   2.527   5.242
 5527SOL    HW118588  10.778   2.456   5.302
 5527SOL    HW218589  10.709   2.484   5.170
 5528SOL     OW18590   3.496  10.643   1.949
 5528SOL    HW118591   3.472  10.628   1.857
 5528SOL    HW218592   3.523  10.557   1.981
 5529SOL     OW18593   2.274   2.057   5.692
 5529SOL    HW118594   2.188   2.021   5.712
 5529SOL    HW218595   2.325   2.044   5.772
 5530SOL     OW18596   9.803   4.571  10.138
 5530SOL    HW118597   9.857   4.605  10.066
 5530SOL    HW218598   9.770   4.487  10.105
 5531SOL     OW18599   8.974   3.622   1.168
 5531SOL    HW118600   8.940   3.537   1.139
 5531SOL    HW218601   9.013   3.660   1.089
 5532SOL     OW18602  10.894   0.114   5.741
 5532SOL    HW118603  10.921   0.205   5.730
 5532SOL    HW218604  10.813   0.106   5.691
 5533SOL     OW18605   6.361   7.597   5.687
 5533SOL    HW118606   6.416   7.526   5.720
 5533SOL    HW218607   6.283   7.552   5.653
 5534SOL     OW18608   3.099  10.145   0.064
 5534SOL    HW118609   3.148  10.183  -0.008
 5534SOL    HW218610   3.042  10.215   0.095
 5535SOL     OW18611   6.355   7.941   9.913
 5535SOL    HW118612   6.328   8.031   9.897
 5535SOL    HW218613   6.449   7.941   9.896
 5536SOL     OW18614   4.376   5.113   5.751
 5536SOL    HW118615   4.414   5.037   5.796
 5536SOL    HW218616   4.413   5.189   5.796
 5537SOL     OW18617   6.233   7.193   3.847
 5537SOL    HW118618   6.317   7.216   3.808
 5537SOL    HW218619   6.182   7.274   3.843
 5538SOL     OW18620   6.523   7.689   5.169
 5538SOL    HW118621   6.487   7.648   5.090
 5538SOL    HW218622   6.611   7.717   5.143
 5539SOL     OW18623   1.839   8.887   9.163
 5539SOL    HW118624   1.908   8.913   9.102
 5539SOL    HW218625   1.835   8.958   9.226
 5540SOL     OW18626   7.953   3.496   2.326
 5540SOL    HW118627   8.041   3.534   2.328
 5540SOL    HW218628   7.908   3.543   2.256
 5541SOL     OW18629   3.486   6.827   3.920
 5541SOL    HW118630   3.492   6.737   3.888
 5541SOL    HW218631   3.577   6.852   3.938
 5542SOL     OW18632   6.380   8.773   4.028
 5542SOL    HW118633   6.343   8.861   4.023
 5542SOL    HW218634   6.453   8.774   3.966
 5543SOL     OW18635   3.922   0.555   3.378
 5543SOL    HW118636   3.951   0.586   3.464
 5543SOL    HW218637   3.929   0.631   3.321
 5544SOL     OW18638   1.323   2.726   8.585
 5544SOL    HW118639   1.304   2.664   8.656
 5544SOL    HW218640   1.356   2.804   8.629
 5545SOL     OW18641   5.509   4.299  10.056
 5545SOL    HW118642   5.515   4.385  10.096
 5545SOL    HW218643   5.440   4.308   9.990
 5546SOL     OW18644  10.006   0.172   5.845
 5546SOL    HW118645  10.080   0.213   5.800
 5546SOL    HW218646   9.970   0.111   5.780
 5547SOL     OW18647   5.642   7.326   8.400
 5547SOL    HW118648   5.551   7.354   8.412
 5547SOL    HW218649   5.640   7.273   8.319
 5548SOL     OW18650   8.921   7.723   4.113
 5548SOL    HW118651   8.920   7.687   4.024
 5548SOL    HW218652   8.941   7.648   4.169
 5549SOL     OW18653   7.030   5.121   6.119
 5549SOL    HW118654   6.939   5.115   6.148
 5549SOL    HW218655   7.082   5.110   6.199
 5550SOL     OW18656   9.795  10.282   1.343
 5550SOL    HW118657   9.884  10.307   1.366
 5550SOL    HW218658   9.784  10.195   1.382
 5551SOL     OW18659   4.126   2.677  10.382
 5551SOL    HW118660   4.098   2.740  10.316
 5551SOL    HW218661   4.182   2.727  10.441
 5552SOL     OW18662  10.910   6.818   9.669
 5552SOL    HW118663  10.830   6.767   9.655
 5552SOL    HW218664  10.902   6.893   9.610
 5553SOL     OW18665   3.651   6.159   6.324
 5553SOL    HW118666   3.722   6.099   6.349
 5553SOL    HW218667   3.571   6.113   6.350
 5554SOL     OW18668   0.009   4.868   4.473
 5554SOL    HW118669   0.084   4.896   4.524
 5554SOL    HW218670   0.042   4.796   4.419
 5555SOL     OW18671   3.617   1.048   7.011
 5555SOL    HW118672   3.586   0.969   7.055
 5555SOL    HW218673   3.555   1.115   7.036
 5556SOL     OW18674  10.252   3.484   3.918
 5556SOL    HW118675  10.270   3.576   3.933
 5556SOL    HW218676  10.163   3.482   3.883
 5557SOL     OW18677   4.572   9.699   2.895
 5557SOL    HW118678   4.564   9.725   2.803
 5557SOL    HW218679   4.607   9.776   2.939
 5558SOL     OW18680  10.645   6.859  10.004
 5558SOL    HW118681  10.732   6.884   9.973
 5558SOL    HW218682  10.653   6.766  10.026
 5559SOL     OW18683   8.905   8.650   5.759
 5559SOL    HW118684   8.863   8.652   5.673
 5559SOL    HW218685   8.943   8.737   5.769
 5560SOL     OW18686   3.181   4.651   5.222
 5560SOL    HW118687   3.099   4.682   5.183
 5560SOL    HW218688   3.239   4.727   5.220
 5561SOL     OW18689   7.058   6.298   5.808
 5561SOL    HW118690   7.094   6.368   5.753
 5561SOL    HW218691   6.976   6.274   5.765
 5562SOL     OW18692   1.242   0.653   8.919
 5562SOL    HW118693   1.163   0.697   8.951
 5562SOL    HW218694   1.290   0.629   8.998
 5563SOL     OW18695   2.032   2.422   8.516
 5563SOL    HW118696   1.949   2.468   8.522
 5563SOL    HW218697   2.023   2.348   8.576
 5564SOL     OW18698  10.205   8.842   3.688
 5564SOL    HW118699  10.299   8.848   3.705
 5564SOL    HW218700  10.176   8.933   3.682
 5565SOL     OW18701   2.951   3.783   5.354
 5565SOL    HW118702   2.911   3.697   5.370
 5565SOL    HW218703   3.011   3.795   5.427
 5566SOL     OW18704   1.827   5.824   5.946
 5566SOL    HW118705   1.851   5.791   5.859
 5566SOL    HW218706   1.732   5.831   5.943
 5567SOL     OW18707   0.840   8.050   6.232
 5567SOL    HW118708   0.816   8.048   6.139
 5567SOL    HW218709   0.936   8.052   6.231
 5568SOL     OW18710   7.462   5.699   4.019
 5568SOL    HW118711   7.544   5.678   4.063
 5568SOL    HW218712   7.478   5.680   3.926
 5569SOL     OW18713   0.156   0.985   7.382
 5569SOL    HW118714   0.061   0.989   7.397
 5569SOL    HW218715   0.180   0.896   7.407
 5570SOL     OW18716   0.893   1.512   1.827
 5570SOL    HW118717   0.954   1.566   1.877
 5570SOL    HW218718   0.937   1.499   1.743
 5571SOL     OW18719   3.139   8.290   1.972
 5571SOL    HW118720   3.061   8.287   1.916
 5571SOL    HW218721   3.149   8.200   2.004
 5572SOL     OW18722   8.056   3.045   5.617
 5572SOL    HW118723   7.981   3.051   5.675
 5572SOL    HW218724   8.115   3.115   5.645
 5573SOL     OW18725  10.682   7.349   6.036
 5573SOL    HW118726  10.701   7.441   6.016
 5573SOL    HW218727  10.680   7.344   6.131
 5574SOL     OW18728   2.240   6.413  10.560
 5574SOL    HW118729   2.273   6.494  10.522
 5574SOL    HW218730   2.250   6.348  10.490
 5575SOL     OW18731   9.460   9.781   6.196
 5575SOL    HW118732   9.556   9.779   6.197
 5575SOL    HW218733   9.434   9.689   6.187
 5576SOL     OW18734   5.518   8.168   3.323
 5576SOL    HW118735   5.571   8.089   3.313
 5576SOL    HW218736   5.490   8.188   3.234
 5577SOL     OW18737   4.230   9.821   5.326
 5577SOL    HW118738   4.143   9.850   5.299
 5577SOL    HW218739   4.273   9.797   5.244
 5578SOL     OW18740   5.733   7.818   0.695
 5578SOL    HW118741   5.692   7.856   0.772
 5578SOL    HW218742   5.693   7.731   0.687
 5579SOL     OW18743   0.583  10.676   3.259
 5579SOL    HW118744   0.642  10.740   3.219
 5579SOL    HW218745   0.528  10.647   3.186
 5580SOL     OW18746   6.489   9.367   4.805
 5580SOL    HW118747   6.513   9.429   4.874
 5580SOL    HW218748   6.395   9.355   4.815
 5581SOL     OW18749   5.597   7.904   9.471
 5581SOL    HW118750   5.606   7.977   9.532
 5581SOL    HW218751   5.529   7.848   9.509
 5582SOL     OW18752   1.994   7.584   4.183
 5582SOL    HW118753   1.974   7.493   4.159
 5582SOL    HW218754   1.914   7.616   4.223
 5583SOL     OW18755   2.244   1.617   3.342
 5583SOL    HW118756   2.259   1.696   3.393
 5583SOL    HW218757   2.199   1.647   3.263
 5584SOL     OW18758   6.564   8.536   2.036
 5584SOL    HW118759   6.588   8.486   2.114
 5584SOL    HW218760   6.631   8.604   2.029
 5585SOL     OW18761  10.400   8.360   7.341
 5585SOL    HW118762  10.483   8.393   7.375
 5585SOL    HW218763  10.386   8.278   7.388
 5586SOL     OW18764   9.402   3.729   3.788
 5586SOL    HW118765   9.368   3.794   3.726
 5586SOL    HW218766   9.439   3.780   3.859
 5587SOL     OW18767   1.151   0.230  10.457
 5587SOL    HW118768   1.149   0.206  10.364
 5587SOL    HW218769   1.187   0.153  10.501
 5588SOL     OW18770   4.271   7.042   4.516
 5588SOL    HW118771   4.329   7.083   4.580
 5588SOL    HW218772   4.250   7.112   4.454
 5589SOL     OW18773   6.799   5.481   2.885
 5589SOL    HW118774   6.846   5.406   2.922
 5589SOL    HW218775   6.711   5.474   2.922
 5590SOL     OW18776  10.527   3.312   8.994
 5590SOL    HW118777  10.442   3.352   8.977
 5590SOL    HW218778  10.589   3.365   8.944
 5591SOL     OW18779   5.710   1.034   2.696
 5591SOL    HW118780   5.696   0.996   2.609
 5591SOL    HW218781   5.805   1.047   2.702
 5592SOL     OW18782   4.908   0.461   9.199
 5592SOL    HW118783   4.883   0.514   9.274
 5592SOL    HW218784   4.963   0.518   9.145
 5593SOL     OW18785   2.757   0.256   6.122
 5593SOL    HW118786   2.666   0.282   6.136
 5593SOL    HW218787   2.764   0.170   6.164
 5594SOL     OW18788   0.287   7.725   3.927
 5594SOL    HW118789   0.370   7.714   3.881
 5594SOL    HW218790   0.234   7.651   3.898
 5595SOL     OW18791   0.213   6.212   1.790
 5595SOL    HW118792   0.290   6.252   1.829
 5595SOL    HW218793   0.138   6.259   1.828
 5596SOL     OW18794   3.978   8.985   1.189
 5596SOL    HW118795   3.976   9.055   1.124
 5596SOL    HW218796   3.903   9.002   1.246
 5597SOL     OW18797   5.530   6.264   8.017
 5597SOL    HW118798   5.601   6.298   7.963
 5597SOL    HW218799   5.509   6.335   8.077
 5598SOL     OW18800   8.081   8.824   5.103
 5598SOL    HW118801   7.989   8.799   5.115
 5598SOL    HW218802   8.095   8.896   5.164
 5599SOL     OW18803   0.752   5.073   1.853
 5599SOL    HW118804   0.696   5.032   1.787
 5599SOL    HW218805   0.797   4.999   1.895
 5600SOL     OW18806  10.582   1.462   5.716
 5600SOL    HW118807  10.636   1.448   5.638
 5600SOL    HW218808  10.514   1.395   5.709
 5601SOL     OW18809   7.394   6.986   7.050
 5601SOL    HW118810   7.338   6.908   7.055
 5601SOL    HW218811   7.425   6.999   7.139
 5602SOL     OW18812   0.028   6.383   5.909
 5602SOL    HW118813  -0.022   6.451   5.864
 5602SOL    HW218814   0.104   6.369   5.853
 5603SOL     OW18815   6.153   1.129   9.997
 5603SOL    HW118816   6.211   1.127  10.073
 5603SOL    HW218817   6.118   1.218   9.996
 5604SOL     OW18818  10.783   1.066   0.605
 5604SOL    HW118819  10.804   1.082   0.513
 5604SOL    HW218820  10.850   1.114   0.653
 5605SOL     OW18821   3.506   0.524   0.394
 5605SOL    HW118822   3.484   0.560   0.308
 5605SOL    HW218823   3.570   0.585   0.430
 5606SOL     OW18824   0.391   2.703   5.604
 5606SOL    HW118825   0.392   2.617   5.562
 5606SOL    HW218826   0.483   2.722   5.621
 5607SOL     OW18827   3.147  10.121   1.044
 5607SOL    HW118828   3.132  10.082   1.130
 5607SOL    HW218829   3.208  10.193   1.060
 5608SOL     OW18830   7.478   9.903   2.175
 5608SOL    HW118831   7.486   9.854   2.256
 5608SOL    HW218832   7.401   9.958   2.187
 5609SOL     OW18833   1.936   2.818   5.497
 5609SOL    HW118834   1.845   2.820   5.468
 5609SOL    HW218835   1.966   2.729   5.475
 5610SOL     OW18836   8.867   7.500   8.330
 5610SOL    HW118837   8.948   7.518   8.282
 5610SOL    HW218838   8.825   7.431   8.279
 5611SOL     OW18839   0.593   3.013   5.416
 5611SOL    HW118840   0.501   2.986   5.417
 5611SOL    HW218841   0.591   3.104   5.388
 5612SOL     OW18842   6.399   7.879   3.915
 5612SOL    HW118843   6.483   7.839   3.892
 5612SOL    HW218844   6.381   7.848   4.003
 5613SOL     OW18845   3.736   9.437   2.329
 5613SOL    HW118846   3.672   9.431   2.400
 5613SOL    HW218847   3.764   9.528   2.328
 5614SOL     OW18848   3.250   8.068   0.243
 5614SOL    HW118849   3.285   8.003   0.182
 5614SOL    HW218850   3.309   8.064   0.318
 5615SOL     OW18851   1.616   4.133   4.150
 5615SOL    HW118852   1.691   4.121   4.208
 5615SOL    HW218853   1.646   4.102   4.064
 5616SOL     OW18854   5.567  10.364   1.330
 5616SOL    HW118855   5.629  10.366   1.257
 5616SOL    HW218856   5.534  10.453   1.336
 5617SOL     OW18857   7.665   5.651   3.714
 5617SOL    HW118858   7.597   5.586   3.697
 5617SOL    HW218859   7.731   5.604   3.765
 5618SOL     OW18860   4.038   3.815   5.343
 5618SOL    HW118861   4.095   3.751   5.300
 5618SOL    HW218862   4.098   3.877   5.384
 5619SOL     OW18863   6.380   6.868   0.884
 5619SOL    HW118864   6.402   6.947   0.932
 5619SOL    HW218865   6.307   6.893   0.827
 5620SOL     OW18866  10.425   7.451   9.577
 5620SOL    HW118867  10.376   7.373   9.604
 5620SOL    HW218868  10.444   7.436   9.484
 5621SOL     OW18869   0.938   6.921   8.454
 5621SOL    HW118870   1.027   6.925   8.419
 5621SOL    HW218871   0.904   7.009   8.444
 5622SOL     OW18872   6.669   6.579   0.497
 5622SOL    HW118873   6.592   6.619   0.536
 5622SOL    HW218874   6.741   6.637   0.519
 5623SOL     OW18875   6.321   0.231   1.128
 5623SOL    HW118876   6.345   0.261   1.215
 5623SOL    HW218877   6.403   0.198   1.091
 5624SOL     OW18878   1.698   7.756   0.307
 5624SOL    HW118879   1.726   7.802   0.386
 5624SOL    HW218880   1.704   7.663   0.329
 5625SOL     OW18881   8.992  10.686   4.000
 5625SOL    HW118882   8.948  10.656   3.920
 5625SOL    HW218883   9.079  10.712   3.970
 5626SOL     OW18884  10.177   8.168   5.030
 5626SOL    HW118885  10.214   8.237   4.975
 5626SOL    HW218886  10.144   8.214   5.107
 5627SOL     OW18887   5.505   4.538   2.472
 5627SOL    HW118888   5.501   4.630   2.448
 5627SOL    HW218889   5.491   4.491   2.389
 5628SOL     OW18890   3.243   8.863   2.701
 5628SOL    HW118891   3.309   8.850   2.769
 5628SOL    HW218892   3.222   8.774   2.671
 5629SOL     OW18893   8.496   5.810   4.360
 5629SOL    HW118894   8.517   5.727   4.402
 5629SOL    HW218895   8.500   5.874   4.430
 5630SOL     OW18896   1.127   0.570   3.064
 5630SOL    HW118897   1.158   0.591   2.976
 5630SOL    HW218898   1.134   0.652   3.112
 5631SOL     OW18899   8.147   5.990   8.055
 5631SOL    HW118900   8.068   6.005   8.004
 5631SOL    HW218901   8.173   5.900   8.032
 5632SOL     OW18902   2.617   6.965   3.225
 5632SOL    HW118903   2.622   6.875   3.257
 5632SOL    HW218904   2.528   6.993   3.245
 5633SOL     OW18905   3.376   7.244   0.132
 5633SOL    HW118906   3.366   7.291   0.050
 5633SOL    HW218907   3.334   7.159   0.117
 5634SOL     OW18908   0.924   7.864   6.572
 5634SOL    HW118909   0.958   7.943   6.613
 5634SOL    HW218910   0.876   7.819   6.641
 5635SOL     OW18911   5.897   8.441   2.246
 5635SOL    HW118912   5.888   8.346   2.255
 5635SOL    HW218913   5.872   8.475   2.331
 5636SOL     OW18914   2.189   0.587   7.378
 5636SOL    HW118915   2.108   0.585   7.327
 5636SOL    HW218916   2.162   0.567   7.467
 5637SOL     OW18917   9.821   7.736   0.591
 5637SOL    HW118918   9.748   7.789   0.622
 5637SOL    HW218919   9.865   7.706   0.670
 5638SOL     OW18920  10.247   5.794   2.478
 5638SOL    HW118921  10.166   5.833   2.510
 5638SOL    HW218922  10.272   5.732   2.546
 5639SOL     OW18923   5.729   5.524   4.927
 5639SOL    HW118924   5.812   5.520   4.878
 5639SOL    HW218925   5.684   5.443   4.904
 5640SOL     OW18926   2.896   4.871  10.102
 5640SOL    HW118927   2.871   4.828  10.020
 5640SOL    HW218928   2.916   4.961  10.077
 5641SOL     OW18929   4.350   1.932   5.094
 5641SOL    HW118930   4.323   1.905   5.182
 5641SOL    HW218931   4.333   2.026   5.091
 5642SOL     OW18932   6.840   8.794   5.202
 5642SOL    HW118933   6.815   8.715   5.154
 5642SOL    HW218934   6.916   8.827   5.155
 5643SOL     OW18935   0.755   5.077   0.398
 5643SOL    HW118936   0.758   5.006   0.462
 5643SOL    HW218937   0.847   5.101   0.384
 5644SOL     OW18938   3.091  10.936   1.328
 5644SOL    HW118939   2.996  10.933   1.332
 5644SOL    HW218940   3.120  10.903   1.413
 5645SOL     OW18941   2.618   2.142   7.821
 5645SOL    HW118942   2.692   2.160   7.762
 5645SOL    HW218943   2.563   2.220   7.816
 5646SOL     OW18944   3.413  10.135   5.937
 5646SOL    HW118945   3.362  10.054   5.947
 5646SOL    HW218946   3.500  10.105   5.911
 5647SOL     OW18947   2.085   6.818   3.670
 5647SOL    HW118948   2.119   6.777   3.749
 5647SOL    HW218949   2.009   6.765   3.646
 5648SOL     OW18950   4.515   1.141   5.324
 5648SOL    HW118951   4.545   1.105   5.240
 5648SOL    HW218952   4.528   1.235   5.315
 5649SOL     OW18953  11.026  10.651   4.586
 5649SOL    HW118954  11.044  10.634   4.678
 5649SOL    HW218955  10.931  10.652   4.579
 5650SOL     OW18956   2.853  10.739   5.558
 5650SOL    HW118957   2.779  10.683   5.579
 5650SOL    HW218958   2.930  10.686   5.579
 5651SOL     OW18959   7.583   1.719   5.328
 5651SOL    HW118960   7.673   1.699   5.354
 5651SOL    HW218961   7.529   1.659   5.380
 5652SOL     OW18962   4.829   9.462   9.015
 5652SOL    HW118963   4.909   9.476   9.066
 5652SOL    HW218964   4.767   9.526   9.049
 5653SOL     OW18965   8.022   4.033   2.793
 5653SOL    HW118966   8.034   4.109   2.850
 5653SOL    HW218967   7.957   4.061   2.729
 5654SOL     OW18968   6.145   8.690   3.858
 5654SOL    HW118969   6.083   8.745   3.811
 5654SOL    HW218970   6.198   8.751   3.909
 5655SOL     OW18971   0.935   1.312   3.155
 5655SOL    HW118972   0.859   1.274   3.111
 5655SOL    HW218973   0.935   1.272   3.242
 5656SOL     OW18974   1.551   7.157   8.819
 5656SOL    HW118975   1.632   7.110   8.799
 5656SOL    HW218976   1.536   7.140   8.912
 5657SOL     OW18977  10.034   7.146  10.850
 5657SOL    HW118978  10.022   7.202  10.773
 5657SOL    HW218979   9.962   7.083  10.846
 5658SOL     OW18980   1.711   6.969   4.654
 5658SOL    HW118981   1.668   7.046   4.689
 5658SOL    HW218982   1.674   6.896   4.703
 5659SOL     OW18983   0.237   6.961   0.126
 5659SOL    HW118984   0.319   6.995   0.090
 5659SOL    HW218985   0.216   6.885   0.071
 5660SOL     OW18986   8.674   8.443   5.599
 5660SOL    HW118987   8.739   8.492   5.549
 5660SOL    HW218988   8.591   8.465   5.558
 5661SOL     OW18989   4.551   2.926   5.595
 5661SOL    HW118990   4.621   2.892   5.651
 5661SOL    HW218991   4.490   2.853   5.586
 5662SOL     OW18992   4.930   9.704   2.412
 5662SOL    HW118993   4.948   9.795   2.433
 5662SOL    HW218994   4.990   9.684   2.340
 5663SOL     OW18995   3.821   3.462   0.261
 5663SOL    HW118996   3.903   3.463   0.310
 5663SOL    HW218997   3.848   3.453   0.169
 5664SOL     OW18998   1.197   2.883   3.749
 5664SOL    HW118999   1.242   2.799   3.742
 5664SOL    HW219000   1.169   2.888   3.840
 5665SOL     OW19001   1.065   8.477   7.220
 5665SOL    HW119002   1.007   8.464   7.145
 5665SOL    HW219003   1.056   8.569   7.242
 5666SOL     OW19004   3.602   8.664   3.847
 5666SOL    HW119005   3.556   8.744   3.871
 5666SOL    HW219006   3.559   8.634   3.767
 5667SOL     OW19007   5.796   5.646   3.865
 5667SOL    HW119008   5.768   5.604   3.783
 5667SOL    HW219009   5.768   5.585   3.934
 5668SOL     OW19010   4.442   0.312   1.528
 5668SOL    HW119011   4.367   0.291   1.472
 5668SOL    HW219012   4.469   0.227   1.564
 5669SOL     OW19013   1.969  10.086   5.476
 5669SOL    HW119014   1.929  10.116   5.394
 5669SOL    HW219015   2.011  10.164   5.512
 5670SOL     OW19016   3.596   5.206   5.279
 5670SOL    HW119017   3.686   5.222   5.251
 5670SOL    HW219018   3.601   5.201   5.374
 5671SOL     OW19019   8.925   3.649   6.071
 5671SOL    HW119020   8.983   3.723   6.055
 5671SOL    HW219021   8.952   3.584   6.006
 5672SOL     OW19022   6.360   8.712   8.232
 5672SOL    HW119023   6.265   8.705   8.227
 5672SOL    HW219024   6.383   8.774   8.163
 5673SOL     OW19025  10.905   1.251   5.005
 5673SOL    HW119026  11.000   1.260   4.999
 5673SOL    HW219027  10.882   1.193   4.932
 5674SOL     OW19028   3.025   5.561   6.644
 5674SOL    HW119029   3.101   5.531   6.594
 5674SOL    HW219030   2.971   5.607   6.580
 5675SOL     OW19031  10.536   8.255   8.066
 5675SOL    HW119032  10.519   8.301   8.148
 5675SOL    HW219033  10.624   8.218   8.076
 5676SOL     OW19034   4.201   7.442   3.964
 5676SOL    HW119035   4.131   7.419   3.903
 5676SOL    HW219036   4.163   7.510   4.020
 5677SOL     OW19037   2.874   9.234   2.870
 5677SOL    HW119038   2.864   9.305   2.933
 5677SOL    HW219039   2.910   9.161   2.920
 5678SOL     OW19040   1.329   8.490   6.770
 5678SOL    HW119041   1.258   8.427   6.756
 5678SOL    HW219042   1.320   8.516   6.861
 5679SOL     OW19043   4.617   7.336   5.630
 5679SOL    HW119044   4.573   7.274   5.571
 5679SOL    HW219045   4.688   7.285   5.669
 5680SOL     OW19046   6.566  10.608   7.630
 5680SOL    HW119047   6.525  10.595   7.715
 5680SOL    HW219048   6.648  10.654   7.649
 5681SOL     OW19049  10.672   6.040   2.118
 5681SOL    HW119050  10.653   6.026   2.025
 5681SOL    HW219051  10.762   6.074   2.119
 5682SOL     OW19052   3.128   1.355   2.889
 5682SOL    HW119053   3.102   1.353   2.797
 5682SOL    HW219054   3.093   1.438   2.922
 5683SOL     OW19055   5.480   6.994   1.050
 5683SOL    HW119056   5.454   7.065   0.992
 5683SOL    HW219057   5.397   6.954   1.077
 5684SOL     OW19058   0.634   6.443   8.867
 5684SOL    HW119059   0.704   6.508   8.865
 5684SOL    HW219060   0.632   6.412   8.957
 5685SOL     OW19061   1.576   4.953   6.586
 5685SOL    HW119062   1.670   4.938   6.576
 5685SOL    HW219063   1.537   4.916   6.507
 5686SOL     OW19064  10.975   7.549   4.134
 5686SOL    HW119065  10.980   7.456   4.110
 5686SOL    HW219066  11.036   7.558   4.207
 5687SOL     OW19067   7.812   6.957   4.051
 5687SOL    HW119068   7.772   6.912   4.125
 5687SOL    HW219069   7.768   7.041   4.046
 5688SOL     OW19070   8.081   7.921   3.563
 5688SOL    HW119071   8.007   7.870   3.530
 5688SOL    HW219072   8.116   7.869   3.635
 5689SOL     OW19073  10.175   7.661   5.512
 5689SOL    HW119074  10.110   7.714   5.467
 5689SOL    HW219075  10.258   7.706   5.496
 5690SOL     OW19076   3.822   5.225   9.199
 5690SOL    HW119077   3.886   5.277   9.247
 5690SOL    HW219078   3.809   5.147   9.253
 5691SOL     OW19079   8.432   7.001   1.267
 5691SOL    HW119080   8.341   6.996   1.238
 5691SOL    HW219081   8.483   6.996   1.186
 5692SOL     OW19082   1.337   0.450   9.399
 5692SOL    HW119083   1.292   0.399   9.466
 5692SOL    HW219084   1.397   0.506   9.448
 5693SOL     OW19085  10.756   2.512   4.806
 5693SOL    HW119086  10.804   2.528   4.724
 5693SOL    HW219087  10.671   2.478   4.778
 5694SOL     OW19088   5.205   9.965   7.204
 5694SOL    HW119089   5.248  10.045   7.173
 5694SOL    HW219090   5.261   9.894   7.171
 5695SOL     OW19091   0.088   0.800   2.942
 5695SOL    HW119092   0.119   0.868   2.883
 5695SOL    HW219093   0.162   0.781   2.999
 5696SOL     OW19094  10.599  10.872   3.893
 5696SOL    HW119095  10.597  10.931   3.968
 5696SOL    HW219096  10.686  10.885   3.854
 5697SOL     OW19097   0.977   5.455   1.373
 5697SOL    HW119098   0.923   5.408   1.437
 5697SOL    HW219099   0.977   5.546   1.403
 5698SOL     OW19100   1.705   3.540   9.617
 5698SOL    HW119101   1.708   3.572   9.527
 5698SOL    HW219102   1.655   3.606   9.664
 5699SOL     OW19103   9.838   5.434   1.977
 5699SOL    HW119104   9.823   5.502   2.042
 5699SOL    HW219105   9.756   5.384   1.974
 5700SOL     OW19106   6.123   6.434   3.048
 5700SOL    HW119107   6.040   6.406   3.087
 5700SOL    HW219108   6.168   6.482   3.117
 5701SOL     OW19109   5.457   1.621   5.856
 5701SOL    HW119110   5.422   1.703   5.823
 5701SOL    HW219111   5.389   1.587   5.914
 5702SOL     OW19112   3.774  10.224   2.449
 5702SOL    HW119113   3.755  10.136   2.415
 5702SOL    HW219114   3.834  10.209   2.522
 5703SOL     OW19115   0.296   0.183   3.812
 5703SOL    HW119116   0.233   0.229   3.756
 5703SOL    HW219117   0.241   0.127   3.867
 5704SOL     OW19118  10.621   3.110   6.545
 5704SOL    HW119119  10.644   3.202   6.556
 5704SOL    HW219120  10.640   3.069   6.629
 5705SOL     OW19121   7.404   7.239   7.994
 5705SOL    HW119122   7.387   7.152   8.031
 5705SOL    HW219123   7.410   7.224   7.899
 5706SOL     OW19124   0.946   7.008   3.662
 5706SOL    HW119125   0.990   6.988   3.744
 5706SOL    HW219126   0.938   6.923   3.618
 5707SOL     OW19127   0.172   9.247   1.284
 5707SOL    HW119128   0.117   9.268   1.359
 5707SOL    HW219129   0.252   9.297   1.297
 5708SOL     OW19130  10.687   6.239   4.521
 5708SOL    HW119131  10.739   6.260   4.598
 5708SOL    HW219132  10.620   6.307   4.517
 5709SOL     OW19133   1.819   6.919   2.478
 5709SOL    HW119134   1.856   6.887   2.395
 5709SOL    HW219135   1.789   6.840   2.523
 5710SOL     OW19136   8.666   2.041   8.148
 5710SOL    HW119137   8.747   2.041   8.199
 5710SOL    HW219138   8.642   2.133   8.141
 5711SOL     OW19139   3.946   3.926   3.870
 5711SOL    HW119140   3.863   3.888   3.899
 5711SOL    HW219141   4.010   3.894   3.933
 5712SOL     OW19142   1.457   8.154   0.795
 5712SOL    HW119143   1.466   8.199   0.879
 5712SOL    HW219144   1.364   8.163   0.773
 5713SOL     OW19145  10.832   4.891   8.785
 5713SOL    HW119146  10.904   4.833   8.759
 5713SOL    HW219147  10.863   4.933   8.865
 5714SOL     OW19148   7.255   5.452  10.029
 5714SOL    HW119149   7.253   5.438   9.934
 5714SOL    HW219150   7.347   5.443  10.053
 5715SOL     OW19151   1.777   8.125   4.944
 5715SOL    HW119152   1.836   8.160   5.010
 5715SOL    HW219153   1.706   8.084   4.994
 5716SOL     OW19154  10.746   9.044   5.311
 5716SOL    HW119155  10.705   9.122   5.347
 5716SOL    HW219156  10.691   8.972   5.342
 5717SOL     OW19157   1.349   5.208   7.676
 5717SOL    HW119158   1.262   5.216   7.715
 5717SOL    HW219159   1.349   5.271   7.604
 5718SOL     OW19160   4.088   4.668   3.602
 5718SOL    HW119161   4.019   4.664   3.535
 5718SOL    HW219162   4.116   4.577   3.613
 5719SOL     OW19163  10.718   7.022   8.473
 5719SOL    HW119164  10.730   7.090   8.539
 5719SOL    HW219165  10.806   7.004   8.440
 5720SOL     OW19166   1.282   3.932   9.834
 5720SOL    HW119167   1.305   4.021   9.807
 5720SOL    HW219168   1.220   3.902   9.767
 5721SOL     OW19169   0.197   9.485   7.301
 5721SOL    HW119170   0.108   9.476   7.265
 5721SOL    HW219171   0.247   9.526   7.230
 5722SOL     OW19172  10.882   8.980   9.785
 5722SOL    HW119173  10.876   9.028   9.867
 5722SOL    HW219174  10.795   8.988   9.746
 5723SOL     OW19175  10.730   6.874   3.325
 5723SOL    HW119176  10.768   6.947   3.276
 5723SOL    HW219177  10.697   6.913   3.405
 5724SOL     OW19178   2.437   4.724   9.065
 5724SOL    HW119179   2.399   4.768   9.140
 5724SOL    HW219180   2.518   4.772   9.047
 5725SOL     OW19181   9.607   8.633   7.791
 5725SOL    HW119182   9.681   8.653   7.734
 5725SOL    HW219183   9.532   8.626   7.731
 5726SOL     OW19184  10.512   7.018   6.490
 5726SOL    HW119185  10.417   7.022   6.498
 5726SOL    HW219186  10.538   6.946   6.548
 5727SOL     OW19187  11.057  10.251   6.212
 5727SOL    HW119188  11.000  10.174   6.205
 5727SOL    HW219189  11.038  10.302   6.133
 5728SOL     OW19190   3.245  10.282   4.339
 5728SOL    HW119191   3.158  10.255   4.368
 5728SOL    HW219192   3.286  10.321   4.416
 5729SOL     OW19193   5.692   4.238   2.833
 5729SOL    HW119194   5.638   4.315   2.816
 5729SOL    HW219195   5.773   4.273   2.869
 5730SOL     OW19196   1.143  10.497   9.485
 5730SOL    HW119197   1.134  10.402   9.494
 5730SOL    HW219198   1.101  10.517   9.401
 5731SOL     OW19199   7.135   8.331   0.392
 5731SOL    HW119200   7.216   8.329   0.442
 5731SOL    HW219201   7.153   8.276   0.315
 5732SOL     OW19202   5.103   8.965   6.375
 5732SOL    HW119203   5.055   8.885   6.395
 5732SOL    HW219204   5.071   9.029   6.438
 5733SOL     OW19205   6.393   7.064   4.678
 5733SOL    HW119206   6.310   7.081   4.634
 5733SOL    HW219207   6.371   7.003   4.748
 5734SOL     OW19208   9.492   1.646   3.353
 5734SOL    HW119209   9.471   1.738   3.364
 5734SOL    HW219210   9.578   1.635   3.394
 5735SOL     OW19211   0.580   5.122   4.075
 5735SOL    HW119212   0.539   5.180   4.011
 5735SOL    HW219213   0.645   5.177   4.119
 5736SOL     OW19214   7.058   5.074  10.487
 5736SOL    HW119215   7.131   5.014  10.505
 5736SOL    HW219216   7.096   5.161  10.497
 5737SOL     OW19217   8.601   2.736   3.600
 5737SOL    HW119218   8.517   2.770   3.629
 5737SOL    HW219219   8.651   2.813   3.574
 5738SOL     OW19220   6.769   9.036   5.832
 5738SOL    HW119221   6.717   9.103   5.875
 5738SOL    HW219222   6.794   9.075   5.748
 5739SOL     OW19223   0.736   5.809   9.747
 5739SOL    HW119224   0.669   5.742   9.732
 5739SOL    HW219225   0.720   5.874   9.678
 5740SOL     OW19226   2.136   7.366   1.096
 5740SOL    HW119227   2.222   7.389   1.131
 5740SOL    HW219228   2.076   7.428   1.137
 5741SOL     OW19229   4.577   7.320   4.027
 5741SOL    HW119230   4.523   7.395   4.005
 5741SOL    HW219231   4.666   7.355   4.033
 5742SOL     OW19232   9.786   0.458   9.647
 5742SOL    HW119233   9.837   0.532   9.680
 5742SOL    HW219234   9.740   0.424   9.724
 5743SOL     OW19235   3.066   2.773   4.548
 5743SOL    HW119236   3.042   2.690   4.507
 5743SOL    HW219237   3.001   2.835   4.515
 5744SOL     OW19238   8.308   0.425   5.881
 5744SOL    HW119239   8.229   0.447   5.832
 5744SOL    HW219240   8.357   0.507   5.886
 5745SOL     OW19241   3.608   2.570   8.671
 5745SOL    HW119242   3.642   2.598   8.755
 5745SOL    HW219243   3.539   2.632   8.651
 5746SOL     OW19244  10.587   3.446   0.915
 5746SOL    HW119245  10.504   3.478   0.880
 5746SOL    HW219246  10.635   3.525   0.940
 5747SOL     OW19247   2.088   2.742   9.875
 5747SOL    HW119248   2.137   2.661   9.860
 5747SOL    HW219249   1.997   2.717   9.860
 5748SOL     OW19250   7.120   4.367   5.729
 5748SOL    HW119251   7.125   4.319   5.811
 5748SOL    HW219252   7.115   4.459   5.755
 5749SOL     OW19253   2.465   9.389   7.304
 5749SOL    HW119254   2.527   9.332   7.350
 5749SOL    HW219255   2.389   9.394   7.362
 5750SOL     OW19256   3.653   5.763   9.654
 5750SOL    HW119257   3.693   5.680   9.680
 5750SOL    HW219258   3.599   5.740   9.578
 5751SOL     OW19259   4.466   0.726   4.793
 5751SOL    HW119260   4.476   0.815   4.760
 5751SOL    HW219261   4.428   0.736   4.880
 5752SOL     OW19262   0.378   8.076   9.112
 5752SOL    HW119263   0.297   8.062   9.062
 5752SOL    HW219264   0.438   8.008   9.080
 5753SOL     OW19265   1.916   8.817   8.200
 5753SOL    HW119266   1.951   8.780   8.281
 5753SOL    HW219267   1.883   8.903   8.225
 5754SOL     OW19268  10.681   7.428   5.667
 5754SOL    HW119269  10.769   7.416   5.631
 5754SOL    HW219270  10.683   7.513   5.709
 5755SOL     OW19271  10.989   7.023   4.435
 5755SOL    HW119272  11.020   6.969   4.362
 5755SOL    HW219273  10.952   7.100   4.393
 5756SOL     OW19274   6.028   0.336   9.325
 5756SOL    HW119275   6.004   0.423   9.355
 5756SOL    HW219276   5.965   0.277   9.367
 5757SOL     OW19277   2.655   2.589   8.185
 5757SOL    HW119278   2.623   2.505   8.219
 5757SOL    HW219279   2.577   2.643   8.175
 5758SOL     OW19280   7.149  10.401   9.930
 5758SOL    HW119281   7.159  10.413   9.835
 5758SOL    HW219282   7.055  10.392   9.943
 5759SOL     OW19283  10.569  10.197   6.918
 5759SOL    HW119284  10.505  10.240   6.974
 5759SOL    HW219285  10.618  10.268   6.877
 5760SOL     OW19286   6.283   0.081   9.264
 5760SOL    HW119287   6.325   0.160   9.296
 5760SOL    HW219288   6.355   0.019   9.252
 5761SOL     OW19289   1.732  10.080   6.424
 5761SOL    HW119290   1.826  10.064   6.416
 5761SOL    HW219291   1.692   9.995   6.403
 5762SOL     OW19292   1.559   8.331   6.796
 5762SOL    HW119293   1.611   8.392   6.744
 5762SOL    HW219294   1.470   8.364   6.790
 5763SOL     OW19295   2.912   6.266   2.852
 5763SOL    HW119296   2.853   6.196   2.822
 5763SOL    HW219297   2.985   6.263   2.790
 5764SOL     OW19298   5.037   8.239   6.285
 5764SOL    HW119299   5.005   8.209   6.370
 5764SOL    HW219300   5.018   8.332   6.283
 5765SOL     OW19301   8.931   8.133   9.910
 5765SOL    HW119302   8.846   8.136   9.953
 5765SOL    HW219303   8.919   8.072   9.837
 5766SOL     OW19304   0.576   3.045   9.269
 5766SOL    HW119305   0.585   3.122   9.213
 5766SOL    HW219306   0.619   2.975   9.220
 5767SOL     OW19307   8.606   6.867   1.074
 5767SOL    HW119308   8.639   6.813   1.146
 5767SOL    HW219309   8.682   6.880   1.017
 5768SOL     OW19310   8.197   6.837   1.948
 5768SOL    HW119311   8.146   6.756   1.956
 5768SOL    HW219312   8.288   6.807   1.945
 5769SOL     OW19313   7.571   6.150   8.808
 5769SOL    HW119314   7.618   6.102   8.876
 5769SOL    HW219315   7.508   6.205   8.855
 5770SOL     OW19316   0.468   4.946   1.348
 5770SOL    HW119317   0.454   4.910   1.435
 5770SOL    HW219318   0.433   4.879   1.289
 5771SOL     OW19319   5.410   5.218   5.241
 5771SOL    HW119320   5.366   5.224   5.325
 5771SOL    HW219321   5.349   5.170   5.185
 5772SOL     OW19322   1.190   6.046   5.023
 5772SOL    HW119323   1.144   6.002   5.094
 5772SOL    HW219324   1.265   5.989   5.004
 5773SOL     OW19325   7.006   9.364   0.448
 5773SOL    HW119326   7.002   9.451   0.409
 5773SOL    HW219327   6.923   9.355   0.495
 5774SOL     OW19328   3.226   8.362   5.446
 5774SOL    HW119329   3.147   8.404   5.413
 5774SOL    HW219330   3.260   8.422   5.512
 5775SOL     OW19331   3.524   5.062   4.613
 5775SOL    HW119332   3.543   5.087   4.703
 5775SOL    HW219333   3.514   4.967   4.616
 5776SOL     OW19334   5.394   7.805   1.863
 5776SOL    HW119335   5.300   7.818   1.848
 5776SOL    HW219336   5.406   7.818   1.957
 5777SOL     OW19337   2.165   6.148   3.183
 5777SOL    HW119338   2.230   6.120   3.118
 5777SOL    HW219339   2.168   6.243   3.180
 5778SOL     OW19340  10.970   8.597   8.565
 5778SOL    HW119341  10.917   8.590   8.485
 5778SOL    HW219342  11.048   8.544   8.546
 5779SOL     OW19343  10.197   9.568   0.886
 5779SOL    HW119344  10.282   9.528   0.904
 5779SOL    HW219345  10.217   9.658   0.862
 5780SOL     OW19346   4.409   6.307   7.291
 5780SOL    HW119347   4.481   6.247   7.269
 5780SOL    HW219348   4.332   6.267   7.250
 5781SOL     OW19349   5.175   3.356   9.772
 5781SOL    HW119350   5.145   3.371   9.861
 5781SOL    HW219351   5.267   3.382   9.773
 5782SOL     OW19352   1.201  10.966   0.536
 5782SOL    HW119353   1.260  10.932   0.603
 5782SOL    HW219354   1.243  10.943   0.453
 5783SOL     OW19355   8.410   4.989   7.816
 5783SOL    HW119356   8.320   4.958   7.811
 5783SOL    HW219357   8.402   5.083   7.830
 5784SOL     OW19358   3.427   6.915   8.141
 5784SOL    HW119359   3.495   6.982   8.146
 5784SOL    HW219360   3.392   6.908   8.230
 5785SOL     OW19361  10.365   6.157   9.500
 5785SOL    HW119362  10.439   6.217   9.511
 5785SOL    HW219363  10.356   6.147   9.405
 5786SOL     OW19364   1.435   4.739   8.481
 5786SOL    HW119365   1.521   4.704   8.505
 5786SOL    HW219366   1.453   4.828   8.452
 5787SOL     OW19367   9.680   3.436   7.217
 5787SOL    HW119368   9.701   3.380   7.142
 5787SOL    HW219369   9.735   3.402   7.287
 5788SOL     OW19370   3.943   9.856   5.739
 5788SOL    HW119371   3.937   9.838   5.645
 5788SOL    HW219372   3.916   9.774   5.780
 5789SOL     OW19373   3.682   5.547   6.039
 5789SOL    HW119374   3.710   5.618   6.096
 5789SOL    HW219375   3.627   5.589   5.973
 5790SOL     OW19376  11.005   8.809   9.478
 5790SOL    HW119377  10.940   8.835   9.412
 5790SOL    HW219378  10.954   8.772   9.549
 5791SOL     OW19379   5.804   6.241   7.243
 5791SOL    HW119380   5.793   6.187   7.165
 5791SOL    HW219381   5.733   6.214   7.301
 5792SOL     OW19382   0.988  11.056   4.811
 5792SOL    HW119383   0.895  11.078   4.808
 5792SOL    HW219384   1.032  11.137   4.786
 5793SOL     OW19385   4.762   5.340   5.719
 5793SOL    HW119386   4.818   5.272   5.680
 5793SOL    HW219387   4.685   5.292   5.749
 5794SOL     OW19388   9.274   3.888   6.640
 5794SOL    HW119389   9.277   3.857   6.549
 5794SOL    HW219390   9.366   3.904   6.663
 5795SOL     OW19391   2.196   9.435   5.248
 5795SOL    HW119392   2.122   9.403   5.300
 5795SOL    HW219393   2.167   9.519   5.213
 5796SOL     OW19394   8.078   6.079   7.256
 5796SOL    HW119395   7.988   6.050   7.243
 5796SOL    HW219396   8.074   6.174   7.248
 5797SOL     OW19397  10.061   1.130   8.083
 5797SOL    HW119398   9.988   1.166   8.133
 5797SOL    HW219399  10.043   1.155   7.992
 5798SOL     OW19400   3.415   9.804   9.050
 5798SOL    HW119401   3.471   9.731   9.021
 5798SOL    HW219402   3.469   9.882   9.036
 5799SOL     OW19403   9.453   9.558  10.409
 5799SOL    HW119404   9.364   9.594  10.408
 5799SOL    HW219405   9.452   9.492  10.478
 5800SOL     OW19406  10.828  10.466   3.200
 5800SOL    HW119407  10.843  10.385   3.150
 5800SOL    HW219408  10.746  10.500   3.165
 5801SOL     OW19409   3.227   3.475   6.172
 5801SOL    HW119410   3.160   3.482   6.240
 5801SOL    HW219411   3.214   3.552   6.117
 5802SOL     OW19412   0.001   6.459   3.914
 5802SOL    HW119413   0.072   6.413   3.958
 5802SOL    HW219414  -0.024   6.401   3.842
 5803SOL     OW19415   6.714  10.506  10.536
 5803SOL    HW119416   6.713  10.411  10.528
 5803SOL    HW219417   6.626  10.528  10.565
 5804SOL     OW19418   7.167   6.659   4.348
 5804SOL    HW119419   7.190   6.566   4.347
 5804SOL    HW219420   7.145   6.677   4.439
 5805SOL     OW19421  10.560  10.451   4.765
 5805SOL    HW119422  10.541  10.484   4.677
 5805SOL    HW219423  10.655  10.442   4.767
 5806SOL     OW19424   5.692   9.398   4.800
 5806SOL    HW119425   5.750   9.386   4.875
 5806SOL    HW219426   5.715   9.484   4.765
 5807SOL     OW19427   9.965   6.788   6.070
 5807SOL    HW119428  10.027   6.851   6.034
 5807SOL    HW219429   9.951   6.816   6.160
 5808SOL     OW19430   7.919   8.754   6.726
 5808SOL    HW119431   7.907   8.749   6.821
 5808SOL    HW219432   7.848   8.701   6.690
 5809SOL     OW19433   0.200   7.690   1.894
 5809SOL    HW119434   0.202   7.785   1.905
 5809SOL    HW219435   0.290   7.661   1.907
 5810SOL     OW19436  10.181   5.918   4.121
 5810SOL    HW119437  10.238   5.871   4.059
 5810SOL    HW219438  10.110   5.856   4.139
 5811SOL     OW19439   4.021   9.404   4.717
 5811SOL    HW119440   3.953   9.369   4.659
 5811SOL    HW219441   4.076   9.457   4.659
 5812SOL     OW19442   0.568   9.733   6.265
 5812SOL    HW119443   0.477   9.761   6.257
 5812SOL    HW219444   0.596   9.765   6.351
 5813SOL     OW19445   5.800   7.626   6.362
 5813SOL    HW119446   5.731   7.579   6.315
 5813SOL    HW219447   5.772   7.717   6.361
 5814SOL     OW19448   4.218   6.696   2.155
 5814SOL    HW119449   4.297   6.691   2.101
 5814SOL    HW219450   4.216   6.786   2.187
 5815SOL     OW19451   4.835   0.766   8.029
 5815SOL    HW119452   4.740   0.779   8.035
 5815SOL    HW219453   4.848   0.723   7.944
 5816SOL     OW19454   1.947   9.551   4.352
 5816SOL    HW119455   1.871   9.607   4.365
 5816SOL    HW219456   1.967   9.559   4.258
 5817SOL     OW19457   4.560   4.390   7.430
 5817SOL    HW119458   4.487   4.449   7.412
 5817SOL    HW219459   4.638   4.446   7.427
 5818SOL     OW19460   5.263   8.335   4.875
 5818SOL    HW119461   5.358   8.321   4.875
 5818SOL    HW219462   5.240   8.344   4.967
 5819SOL     OW19463   1.088  10.000  10.074
 5819SOL    HW119464   1.165   9.984  10.019
 5819SOL    HW219465   1.014   9.972  10.019
 5820SOL     OW19466   0.669   5.545   7.316
 5820SOL    HW119467   0.749   5.597   7.320
 5820SOL    HW219468   0.674   5.500   7.231
 5821SOL     OW19469   5.280   2.528   1.858
 5821SOL    HW119470   5.205   2.546   1.801
 5821SOL    HW219471   5.299   2.435   1.842
 5822SOL     OW19472   7.221  10.428  -0.003
 5822SOL    HW119473   7.134  10.468  -0.005
 5822SOL    HW219474   7.266  10.472   0.070
 5823SOL     OW19475   2.423   5.725   7.954
 5823SOL    HW119476   2.433   5.801   7.897
 5823SOL    HW219477   2.457   5.652   7.902
 5824SOL     OW19478   1.805  10.615   1.521
 5824SOL    HW119479   1.822  10.557   1.446
 5824SOL    HW219480   1.829  10.563   1.598
 5825SOL     OW19481   9.429   2.781   2.798
 5825SOL    HW119482   9.363   2.712   2.787
 5825SOL    HW219483   9.409   2.844   2.729
 5826SOL     OW19484   2.321   0.720   8.334
 5826SOL    HW119485   2.301   0.813   8.334
 5826SOL    HW219486   2.383   0.709   8.261
 5827SOL     OW19487   0.090   9.568   0.063
 5827SOL    HW119488   0.025   9.532   0.003
 5827SOL    HW219489   0.039   9.618   0.127
 5828SOL     OW19490   0.438  10.174   2.988
 5828SOL    HW119491   0.517  10.173   2.934
 5828SOL    HW219492   0.368  10.145   2.929
 5829SOL     OW19493   2.100   1.731   4.230
 5829SOL    HW119494   2.156   1.656   4.252
 5829SOL    HW219495   2.048   1.700   4.156
 5830SOL     OW19496  10.306   9.333   9.003
 5830SOL    HW119497  10.296   9.265   9.069
 5830SOL    HW219498  10.398   9.327   8.976
 5831SOL     OW19499   2.106  10.808   9.046
 5831SOL    HW119500   2.079  10.737   8.987
 5831SOL    HW219501   2.070  10.887   9.006
 5832SOL     OW19502   1.222   9.518   4.060
 5832SOL    HW119503   1.245   9.599   4.014
 5832SOL    HW219504   1.177   9.547   4.139
 5833SOL     OW19505   4.804   7.174   1.072
 5833SOL    HW119506   4.757   7.257   1.069
 5833SOL    HW219507   4.737   7.108   1.055
 5834SOL     OW19508   2.517   6.743   4.894
 5834SOL    HW119509   2.583   6.768   4.958
 5834SOL    HW219510   2.457   6.686   4.942
 5835SOL     OW19511   2.058   5.939   5.232
 5835SOL    HW119512   2.034   5.847   5.220
 5835SOL    HW219513   2.084   5.968   5.144
 5836SOL     OW19514   0.421   4.164   3.097
 5836SOL    HW119515   0.395   4.160   3.005
 5836SOL    HW219516   0.346   4.203   3.141
 5837SOL     OW19517   4.050   8.680   2.412
 5837SOL    HW119518   4.118   8.656   2.475
 5837SOL    HW219519   4.082   8.645   2.329
 5838SOL     OW19520   8.083   4.203   7.762
 5838SOL    HW119521   8.160   4.146   7.765
 5838SOL    HW219522   8.061   4.220   7.853
 5839SOL     OW19523   9.479   8.549   7.500
 5839SOL    HW119524   9.409   8.495   7.538
 5839SOL    HW219525   9.552   8.488   7.489
 5840SOL     OW19526   2.986   9.076   5.638
 5840SOL    HW119527   2.922   9.117   5.696
 5840SOL    HW219528   2.949   9.087   5.550
 5841SOL     OW19529   5.514   9.281   9.712
 5841SOL    HW119530   5.451   9.217   9.678
 5841SOL    HW219531   5.581   9.287   9.643
 5842SOL     OW19532   3.998   9.905   0.325
 5842SOL    HW119533   4.008  10.000   0.333
 5842SOL    HW219534   3.945   9.893   0.246
 5843SOL     OW19535   1.828   7.073   7.836
 5843SOL    HW119536   1.823   7.145   7.898
 5843SOL    HW219537   1.744   7.073   7.791
 5844SOL     OW19538   0.761   5.706  10.460
 5844SOL    HW119539   0.738   5.772  10.524
 5844SOL    HW219540   0.857   5.705  10.459
 5845SOL     OW19541   1.358   5.550   1.621
 5845SOL    HW119542   1.358   5.454   1.612
 5845SOL    HW219543   1.335   5.581   1.533
 5846SOL     OW19544   2.771   4.621   5.724
 5846SOL    HW119545   2.805   4.690   5.781
 5846SOL    HW219546   2.816   4.634   5.640
 5847SOL     OW19547   6.598   8.367   3.019
 5847SOL    HW119548   6.541   8.443   3.027
 5847SOL    HW219549   6.592   8.323   3.103
 5848SOL     OW19550   3.024   5.854  10.634
 5848SOL    HW119551   3.018   5.875  10.727
 5848SOL    HW219552   3.118   5.844  10.617
 5849SOL     OW19553   8.692   2.300  10.845
 5849SOL    HW119554   8.639   2.378  10.857
 5849SOL    HW219555   8.774   2.331  10.806
 5850SOL     OW19556   2.990   6.158   8.776
 5850SOL    HW119557   3.035   6.221   8.832
 5850SOL    HW219558   2.948   6.211   8.708
 5851SOL     OW19559   9.362   5.788   1.365
 5851SOL    HW119560   9.284   5.746   1.328
 5851SOL    HW219561   9.365   5.874   1.323
 5852SOL     OW19562   2.961   7.236   4.543
 5852SOL    HW119563   3.028   7.268   4.603
 5852SOL    HW219564   2.901   7.310   4.532
 5853SOL     OW19565   2.935   1.800   5.609
 5853SOL    HW119566   2.882   1.753   5.545
 5853SOL    HW219567   3.024   1.769   5.593
 5854SOL     OW19568  11.086   7.272  10.903
 5854SOL    HW119569  11.114   7.191  10.945
 5854SOL    HW219570  11.056   7.328  10.974
 5855SOL     OW19571   9.430   7.777  10.506
 5855SOL    HW119572   9.369   7.850  10.503
 5855SOL    HW219573   9.516   7.817  10.520
 5856SOL     OW19574  10.374   8.034   9.548
 5856SOL    HW119575  10.317   7.957   9.546
 5856SOL    HW219576  10.434   8.021   9.474
 5857SOL     OW19577   2.322   5.149   5.780
 5857SOL    HW119578   2.369   5.091   5.840
 5857SOL    HW219579   2.361   5.235   5.795
 5858SOL     OW19580   1.127   9.746  10.302
 5858SOL    HW119581   1.163   9.775  10.218
 5858SOL    HW219582   1.158   9.810  10.365
 5859SOL     OW19583  10.325   5.087   6.637
 5859SOL    HW119584  10.341   5.136   6.556
 5859SOL    HW219585  10.376   5.133   6.703
 5860SOL     OW19586   2.056   0.110   0.553
 5860SOL    HW119587   2.077   0.018   0.537
 5860SOL    HW219588   2.090   0.155   0.476
 5861SOL     OW19589   7.610   0.486   5.788
 5861SOL    HW119590   7.603   0.475   5.693
 5861SOL    HW219591   7.614   0.580   5.801
 5862SOL     OW19592   8.212   0.907   3.096
 5862SOL    HW119593   8.179   0.908   3.006
 5862SOL    HW219594   8.178   0.825   3.133
 5863SOL     OW19595   4.949   3.728   4.474
 5863SOL    HW119596   4.978   3.697   4.560
 5863SOL    HW219597   4.856   3.745   4.485
 5864SOL     OW19598   1.818   5.979  10.771
 5864SOL    HW119599   1.867   6.058  10.791
 5864SOL    HW219600   1.728   6.008  10.761
 5865SOL     OW19601   6.602   2.823   9.736
 5865SOL    HW119602   6.602   2.916   9.757
 5865SOL    HW219603   6.692   2.794   9.753
 5866SOL     OW19604   2.669  10.370   0.369
 5866SOL    HW119605   2.736  10.349   0.434
 5866SOL    HW219606   2.643  10.460   0.388
 5867SOL     OW19607   9.665   7.384   5.264
 5867SOL    HW119608   9.756   7.356   5.278
 5867SOL    HW219609   9.620   7.304   5.236
 5868SOL     OW19610   0.839  10.796  10.023
 5868SOL    HW119611   0.816  10.886  10.046
 5868SOL    HW219612   0.758  10.747  10.033
 5869SOL     OW19613   6.640   7.757   8.604
 5869SOL    HW119614   6.595   7.704   8.670
 5869SOL    HW219615   6.650   7.698   8.529
 5870SOL     OW19616   1.847   7.600   9.133
 5870SOL    HW119617   1.874   7.669   9.073
 5870SOL    HW219618   1.924   7.585   9.188
 5871SOL     OW19619   7.210   7.799   0.955
 5871SOL    HW119620   7.258   7.854   1.017
 5871SOL    HW219621   7.277   7.743   0.916
 5872SOL     OW19622   6.775   4.015   1.213
 5872SOL    HW119623   6.746   4.099   1.248
 5872SOL    HW219624   6.760   3.953   1.284
 5873SOL     OW19625  10.913   7.970   9.630
 5873SOL    HW119626  10.928   8.060   9.603
 5873SOL    HW219627  10.989   7.922   9.597
 5874SOL     OW19628   5.148   8.244   3.609
 5874SOL    HW119629   5.136   8.260   3.702
 5874SOL    HW219630   5.235   8.279   3.589
 5875SOL     OW19631   2.534   6.037   8.121
 5875SOL    HW119632   2.475   5.967   8.150
 5875SOL    HW219633   2.498   6.065   8.037
 5876SOL     OW19634   1.767   7.691   1.528
 5876SOL    HW119635   1.703   7.714   1.595
 5876SOL    HW219636   1.728   7.616   1.482
 5877SOL     OW19637   7.289   9.072  10.654
 5877SOL    HW119638   7.317   9.132  10.585
 5877SOL    HW219639   7.328   8.988  10.629
 5878SOL     OW19640   3.899   5.677   0.678
 5878SOL    HW119641   3.822   5.642   0.634
 5878SOL    HW219642   3.901   5.769   0.653
 5879SOL     OW19643   5.058  10.498  10.099
 5879SOL    HW119644   5.060  10.403  10.087
 5879SOL    HW219645   5.126  10.531  10.040
 5880SOL     OW19646   2.164   5.952   9.422
 5880SOL    HW119647   2.158   6.044   9.398
 5880SOL    HW219648   2.247   5.944   9.468
 5881SOL     OW19649   3.272   9.778   6.154
 5881SOL    HW119650   3.246   9.829   6.230
 5881SOL    HW219651   3.214   9.702   6.154
 5882SOL     OW19652   0.446   9.276   4.229
 5882SOL    HW119653   0.361   9.238   4.251
 5882SOL    HW219654   0.453   9.353   4.285
 5883SOL     OW19655   8.641   4.611   7.808
 5883SOL    HW119656   8.675   4.654   7.729
 5883SOL    HW219657   8.546   4.608   7.795
 5884SOL     OW19658   7.533   0.576   0.923
 5884SOL    HW119659   7.570   0.614   1.002
 5884SOL    HW219660   7.538   0.646   0.858
 5885SOL     OW19661   0.364   8.778   9.113
 5885SOL    HW119662   0.328   8.709   9.169
 5885SOL    HW219663   0.456   8.783   9.136
 5886SOL     OW19664   2.602   1.081   7.173
 5886SOL    HW119665   2.598   1.008   7.111
 5886SOL    HW219666   2.541   1.146   7.137
 5887SOL     OW19667   3.320   8.881   5.483
 5887SOL    HW119668   3.288   8.970   5.467
 5887SOL    HW219669   3.300   8.864   5.575
 5888SOL     OW19670   2.479   3.263  10.400
 5888SOL    HW119671   2.416   3.191  10.407
 5888SOL    HW219672   2.537   3.251  10.475
 5889SOL     OW19673  10.556   4.812  10.750
 5889SOL    HW119674  10.624   4.774  10.694
 5889SOL    HW219675  10.601   4.833  10.832
 5890SOL     OW19676   6.247  10.264   8.643
 5890SOL    HW119677   6.244  10.355   8.670
 5890SOL    HW219678   6.338  10.237   8.658
 5891SOL     OW19679   3.590   1.487  10.962
 5891SOL    HW119680   3.596   1.438  11.044
 5891SOL    HW219681   3.523   1.441  10.912
 5892SOL     OW19682   2.411  10.391   7.469
 5892SOL    HW119683   2.443  10.326   7.406
 5892SOL    HW219684   2.434  10.354   7.554
 5893SOL     OW19685   4.228   9.435   8.492
 5893SOL    HW119686   4.202   9.358   8.441
 5893SOL    HW219687   4.189   9.421   8.578
 5894SOL     OW19688   6.188   7.966   8.517
 5894SOL    HW119689   6.278   7.938   8.498
 5894SOL    HW219690   6.184   7.972   8.612
 5895SOL     OW19691  10.607   7.471  10.464
 5895SOL    HW119692  10.560   7.548  10.494
 5895SOL    HW219693  10.628   7.490  10.372
 5896SOL     OW19694  10.782   6.663   4.586
 5896SOL    HW119695  10.786   6.588   4.645
 5896SOL    HW219696  10.794   6.739   4.642
 5897SOL     OW19697   2.187   6.204   6.223
 5897SOL    HW119698   2.221   6.291   6.204
 5897SOL    HW219699   2.233   6.146   6.162
 5898SOL     OW19700   6.918   6.454   8.611
 5898SOL    HW119701   6.848   6.491   8.664
 5898SOL    HW219702   6.964   6.530   8.575
 5899SOL     OW19703   1.861   5.195   5.588
 5899SOL    HW119704   1.939   5.248   5.606
 5899SOL    HW219705   1.854   5.195   5.492
 5900SOL     OW19706   2.785   3.987   5.924
 5900SOL    HW119707   2.765   3.975   6.017
 5900SOL    HW219708   2.700   3.996   5.882
 5901SOL     OW19709   8.534   8.185   7.770
 5901SOL    HW119710   8.525   8.090   7.758
 5901SOL    HW219711   8.628   8.201   7.760
 5902SOL     OW19712   2.672   5.505   7.548
 5902SOL    HW119713   2.736   5.572   7.526
 5902SOL    HW219714   2.602   5.516   7.483
 5903SOL     OW19715   0.751   5.152   0.735
 5903SOL    HW119716   0.702   5.230   0.710
 5903SOL    HW219717   0.816   5.183   0.798
 5904SOL     OW19718   1.067   7.642   6.455
 5904SOL    HW119719   1.064   7.682   6.368
 5904SOL    HW219720   1.001   7.689   6.505
 5905SOL     OW19721   1.623   5.655   1.646
 5905SOL    HW119722   1.677   5.602   1.704
 5905SOL    HW219723   1.536   5.614   1.650
 5906SOL     OW19724   3.596   6.079   3.706
 5906SOL    HW119725   3.567   5.995   3.669
 5906SOL    HW219726   3.522   6.110   3.757
 5907SOL     OW19727  10.485   5.613   8.798
 5907SOL    HW119728  10.459   5.657   8.717
 5907SOL    HW219729  10.542   5.676   8.842
 5908SOL     OW19730  10.312   5.703   9.592
 5908SOL    HW119731  10.313   5.733   9.501
 5908SOL    HW219732  10.240   5.640   9.596
 5909SOL     OW19733   1.331  10.669   7.397
 5909SOL    HW119734   1.280  10.636   7.471
 5909SOL    HW219735   1.374  10.748   7.430
 5910SOL     OW19736   9.135   5.665   0.233
 5910SOL    HW119737   9.044   5.694   0.226
 5910SOL    HW219738   9.172   5.680   0.146
 5911SOL     OW19739  10.656   4.466   6.208
 5911SOL    HW119740  10.693   4.551   6.183
 5911SOL    HW219741  10.572   4.487   6.249
 5912SOL     OW19742   2.033   2.504  10.913
 5912SOL    HW119743   2.039   2.599  10.903
 5912SOL    HW219744   2.106   2.469  10.860
 5913SOL     OW19745  10.104   5.323   9.353
 5913SOL    HW119746  10.160   5.260   9.399
 5913SOL    HW219747  10.080   5.387   9.420
 5914SOL     OW19748   9.768  10.993   1.416
 5914SOL    HW119749   9.777  10.902   1.443
 5914SOL    HW219750   9.783  11.044   1.496
 5915SOL     OW19751   2.350   8.310   5.877
 5915SOL    HW119752   2.275   8.369   5.881
 5915SOL    HW219753   2.426   8.367   5.867
 5916SOL     OW19754   0.392   7.138   6.361
 5916SOL    HW119755   0.313   7.094   6.329
 5916SOL    HW219756   0.433   7.173   6.282
 5917SOL     OW19757   7.594   0.249   9.862
 5917SOL    HW119758   7.689   0.256   9.876
 5917SOL    HW219759   7.560   0.212   9.943
 5918SOL     OW19760   1.694   5.772   1.410
 5918SOL    HW119761   1.785   5.803   1.414
 5918SOL    HW219762   1.672   5.750   1.500
 5919SOL     OW19763   4.619   6.882   0.654
 5919SOL    HW119764   4.561   6.902   0.727
 5919SOL    HW219765   4.705   6.914   0.681
 5920SOL     OW19766   4.189   7.120   0.763
 5920SOL    HW119767   4.154   7.202   0.729
 5920SOL    HW219768   4.116   7.079   0.809
 5921SOL     OW19769   8.378   9.281   2.176
 5921SOL    HW119770   8.439   9.228   2.124
 5921SOL    HW219771   8.316   9.218   2.212
 5922SOL     OW19772   2.385   7.476   1.307
 5922SOL    HW119773   2.325   7.528   1.360
 5922SOL    HW219774   2.430   7.419   1.369
 5923SOL     OW19775   2.230   8.787   9.585
 5923SOL    HW119776   2.218   8.693   9.597
 5923SOL    HW219777   2.247   8.797   9.491
 5924SOL     OW19778   2.846   5.729   7.972
 5924SOL    HW119779   2.856   5.634   7.969
 5924SOL    HW219780   2.763   5.746   7.928
 5925SOL     OW19781   5.836   6.338   6.059
 5925SOL    HW119782   5.901   6.317   6.126
 5925SOL    HW219783   5.863   6.423   6.025
 5926SOL     OW19784   3.579   9.529  11.072
 5926SOL    HW119785   3.499   9.482  11.095
 5926SOL    HW219786   3.637   9.461  11.037
 5927SOL     OW19787   2.202   6.544  10.029
 5927SOL    HW119788   2.131   6.553   9.965
 5927SOL    HW219789   2.279   6.578   9.983
 5928SOL     OW19790   3.629   1.053   3.763
 5928SOL    HW119791   3.574   1.096   3.828
 5928SOL    HW219792   3.700   1.115   3.745
 5929SOL     OW19793   9.535  10.234   0.419
 5929SOL    HW119794   9.582  10.201   0.495
 5929SOL    HW219795   9.444  10.239   0.447
 5930SOL     OW19796   2.448   9.502   1.327
 5930SOL    HW119797   2.491   9.520   1.243
 5930SOL    HW219798   2.418   9.587   1.357
 5931SOL     OW19799   0.934   6.865   8.732
 5931SOL    HW119800   1.000   6.811   8.775
 5931SOL    HW219801   0.963   6.870   8.641
 5932SOL     OW19802   0.450   5.898   2.310
 5932SOL    HW119803   0.365   5.854   2.301
 5932SOL    HW219804   0.491   5.888   2.224
 5933SOL     OW19805   0.442   6.101   8.804
 5933SOL    HW119806   0.348   6.101   8.785
 5933SOL    HW219807   0.469   6.010   8.791
 5934SOL     OW19808   7.516   0.500   0.037
 5934SOL    HW119809   7.436   0.456   0.066
 5934SOL    HW219810   7.499   0.524  -0.054
 5935SOL     OW19811   5.201   4.377   3.532
 5935SOL    HW119812   5.186   4.454   3.477
 5935SOL    HW219813   5.207   4.411   3.621
 5936SOL     OW19814   6.007   6.598   8.621
 5936SOL    HW119815   6.056   6.527   8.579
 5936SOL    HW219816   6.028   6.675   8.569
 5937SOL     OW19817   2.457  10.177   6.490
 5937SOL    HW119818   2.427  10.136   6.408
 5937SOL    HW219819   2.478  10.267   6.465
 5938SOL     OW19820   2.626   0.516  10.157
 5938SOL    HW119821   2.617   0.511  10.252
 5938SOL    HW219822   2.701   0.574  10.143
 5939SOL     OW19823   8.066  10.907  10.995
 5939SOL    HW119824   8.054  10.983  10.938
 5939SOL    HW219825   7.999  10.845  10.966
 5940SOL     OW19826   1.185   8.752   8.624
 5940SOL    HW119827   1.175   8.745   8.719
 5940SOL    HW219828   1.095   8.753   8.590
 5941SOL     OW19829  10.012   1.300   0.789
 5941SOL    HW119830  10.003   1.207   0.769
 5941SOL    HW219831   9.957   1.343   0.724
 5942SOL     OW19832   6.914   7.711   7.690
 5942SOL    HW119833   6.892   7.618   7.695
 5942SOL    HW219834   6.891   7.746   7.776
 5943SOL     OW19835   8.239   7.149   7.098
 5943SOL    HW119836   8.171   7.132   7.162
 5943SOL    HW219837   8.313   7.094   7.126
 5944SOL     OW19838   2.149  10.731   6.892
 5944SOL    HW119839   2.096  10.654   6.913
 5944SOL    HW219840   2.125  10.796   6.958
 5945SOL     OW19841   0.202   5.193   0.148
 5945SOL    HW119842   0.192   5.112   0.199
 5945SOL    HW219843   0.203   5.163   0.057
 5946SOL     OW19844   9.347   0.769   3.523
 5946SOL    HW119845   9.291   0.782   3.446
 5946SOL    HW219846   9.306   0.696   3.570
 5947SOL     OW19847   1.307   6.340   5.120
 5947SOL    HW119848   1.312   6.244   5.125
 5947SOL    HW219849   1.397   6.368   5.101
 5948SOL     OW19850   3.910   4.540   8.875
 5948SOL    HW119851   3.994   4.574   8.844
 5948SOL    HW219852   3.891   4.467   8.816
 5949SOL     OW19853   2.677   5.104   8.566
 5949SOL    HW119854   2.655   5.013   8.587
 5949SOL    HW219855   2.602   5.135   8.515
 5950SOL     OW19856   0.393   8.202  10.820
 5950SOL    HW119857   0.414   8.291  10.793
 5950SOL    HW219858   0.307   8.184  10.780
 5951SOL     OW19859  11.075   6.407   1.876
 5951SOL    HW119860  11.064   6.484   1.821
 5951SOL    HW219861  10.987   6.385   1.906
 5952SOL     OW19862   3.075   6.492   9.468
 5952SOL    HW119863   3.102   6.464   9.555
 5952SOL    HW219864   3.098   6.585   9.463
 5953SOL     OW19865   0.848   7.893   7.629
 5953SOL    HW119866   0.851   7.901   7.533
 5953SOL    HW219867   0.926   7.841   7.650
 5954SOL     OW19868   0.632   7.831   3.324
 5954SOL    HW119869   0.692   7.903   3.307
 5954SOL    HW219870   0.574   7.830   3.248
 5955SOL     OW19871   2.934   2.961  10.729
 5955SOL    HW119872   2.883   2.880  10.730
 5955SOL    HW219873   3.023   2.934  10.753
 5956SOL     OW19874  10.738   2.653   6.610
 5956SOL    HW119875  10.664   2.711   6.628
 5956SOL    HW219876  10.709   2.567   6.641
 5957SOL     OW19877   3.080   0.822   8.870
 5957SOL    HW119878   3.173   0.842   8.863
 5957SOL    HW219879   3.045   0.891   8.925
 5958SOL     OW19880   2.877   0.290   6.912
 5958SOL    HW119881   2.854   0.223   6.847
 5958SOL    HW219882   2.799   0.298   6.967
 5959SOL     OW19883   3.564   4.522   4.899
 5959SOL    HW119884   3.597   4.569   4.975
 5959SOL    HW219885   3.614   4.440   4.897
 5960SOL     OW19886   0.461  11.042  10.025
 5960SOL    HW119887   0.447  11.137  10.022
 5960SOL    HW219888   0.555  11.032  10.043
 5961SOL     OW19889   1.798   6.794   3.962
 5961SOL    HW119890   1.740   6.853   4.009
 5961SOL    HW219891   1.746   6.761   3.889
 5962SOL     OW19892   1.027   8.067  10.610
 5962SOL    HW119893   0.941   8.044  10.645
 5962SOL    HW219894   1.087   8.059  10.684
 5963SOL     OW19895   3.368   0.768   8.777
 5963SOL    HW119896   3.355   0.859   8.751
 5963SOL    HW219897   3.449   0.742   8.733
 5964SOL     OW19898   5.446   0.981   0.669
 5964SOL    HW119899   5.363   0.945   0.638
 5964SOL    HW219900   5.501   0.985   0.590
 5965SOL     OW19901   4.639   4.497   9.484
 5965SOL    HW119902   4.638   4.459   9.572
 5965SOL    HW219903   4.548   4.494   9.455
 5966SOL     OW19904  10.204   2.869   9.432
 5966SOL    HW119905  10.245   2.945   9.391
 5966SOL    HW219906  10.209   2.887   9.526
 5967SOL     OW19907   2.981   7.237   0.142
 5967SOL    HW119908   2.945   7.304   0.200
 5967SOL    HW219909   3.029   7.286   0.076
 5968SOL     OW19910   3.027   9.908  11.068
 5968SOL    HW119911   3.053   9.863  10.987
 5968SOL    HW219912   3.110   9.938  11.106
 5969SOL     OW19913   8.620   2.246   5.577
 5969SOL    HW119914   8.628   2.254   5.672
 5969SOL    HW219915   8.567   2.167   5.564
 5970SOL     OW19916  10.321  10.940   5.957
 5970SOL    HW119917  10.410  10.914   5.979
 5970SOL    HW219918  10.307  11.022   6.004
 5971SOL     OW19919  10.104   0.604   8.428
 5971SOL    HW119920  10.157   0.545   8.373
 5971SOL    HW219921  10.167   0.648   8.484
 5972SOL     OW19922   2.111   4.309   7.712
 5972SOL    HW119923   2.034   4.315   7.768
 5972SOL    HW219924   2.080   4.265   7.633
 5973SOL     OW19925   4.989   8.743   1.712
 5973SOL    HW119926   4.970   8.732   1.805
 5973SOL    HW219927   4.993   8.837   1.698
 5974SOL     OW19928   3.956   4.041   5.135
 5974SOL    HW119929   3.956   4.103   5.208
 5974SOL    HW219930   3.902   4.083   5.068
 5975SOL     OW19931   2.206   4.712  10.228
 5975SOL    HW119932   2.151   4.776  10.183
 5975SOL    HW219933   2.209   4.742  10.318
 5976SOL     OW19934   1.778   7.264   8.011
 5976SOL    HW119935   1.819   7.304   8.087
 5976SOL    HW219936   1.789   7.328   7.941
 5977SOL     OW19937   0.270   8.228   7.396
 5977SOL    HW119938   0.359   8.258   7.415
 5977SOL    HW219939   0.218   8.308   7.390
 5978SOL     OW19940   3.173   9.768   7.915
 5978SOL    HW119941   3.213   9.767   7.828
 5978SOL    HW219942   3.245   9.790   7.974
 5979SOL     OW19943   7.088   2.915   8.486
 5979SOL    HW119944   7.077   2.971   8.409
 5979SOL    HW219945   7.070   2.972   8.560
 5980SOL     OW19946   6.005   9.460   8.782
 5980SOL    HW119947   6.058   9.527   8.740
 5980SOL    HW219948   5.916   9.477   8.751
 5981SOL     OW19949   0.579   7.224   4.613
 5981SOL    HW119950   0.561   7.188   4.700
 5981SOL    HW219951   0.499   7.206   4.563
 5982SOL     OW19952   9.926   8.526   3.862
 5982SOL    HW119953   9.876   8.598   3.899
 5982SOL    HW219954   9.965   8.562   3.782
 5983SOL     OW19955   0.806   6.222   9.740
 5983SOL    HW119956   0.733   6.269   9.699
 5983SOL    HW219957   0.772   6.194   9.825
 5984SOL     OW19958  10.619  10.870   5.928
 5984SOL    HW119959  10.692  10.844   5.872
 5984SOL    HW219960  10.656  10.936   5.986
 5985SOL     OW19961   7.901   7.974   9.552
 5985SOL    HW119962   7.979   7.984   9.607
 5985SOL    HW219963   7.881   7.880   9.556
 5986SOL     OW19964   0.902   0.246   9.569
 5986SOL    HW119965   0.866   0.180   9.628
 5986SOL    HW219966   0.826   0.293   9.535
 5987SOL     OW19967   2.810   3.225  10.148
 5987SOL    HW119968   2.816   3.203  10.055
 5987SOL    HW219969   2.725   3.267  10.157
 5988SOL     OW19970   8.469   6.790   1.880
 5988SOL    HW119971   8.560   6.813   1.901
 5988SOL    HW219972   8.476   6.727   1.807
 5989SOL     OW19973   0.414   9.351   9.105
 5989SOL    HW119974   0.409   9.260   9.075
 5989SOL    HW219975   0.505   9.361   9.134
 5990SOL     OW19976   3.481   1.552   9.450
 5990SOL    HW119977   3.538   1.568   9.525
 5990SOL    HW219978   3.508   1.466   9.418
 5991SOL     OW19979   0.810   9.171   7.722
 5991SOL    HW119980   0.837   9.260   7.700
 5991SOL    HW219981   0.892   9.120   7.723
 5992SOL     OW19982   3.441   5.189   7.173
 5992SOL    HW119983   3.516   5.164   7.119
 5992SOL    HW219984   3.369   5.200   7.110
 5993SOL     OW19985   8.932   0.716   9.807
 5993SOL    HW119986   8.906   0.777   9.738
 5993SOL    HW219987   9.023   0.739   9.826
 5994SOL     OW19988   6.167   8.510   1.939
 5994SOL    HW119989   6.252   8.471   1.918
 5994SOL    HW219990   6.104   8.449   1.901
 5995SOL     OW19991  10.014   1.398   9.644
 5995SOL    HW119992  10.093   1.431   9.601
 5995SOL    HW219993   9.991   1.320   9.593
 5996SOL     OW19994   2.653   3.379   9.806
 5996SOL    HW119995   2.693   3.442   9.866
 5996SOL    HW219996   2.630   3.304   9.861
 5997SOL     OW19997   2.242  10.325   5.405
 5997SOL    HW119998   2.202  10.379   5.336
 5997SOL    HW219999   2.254  10.239   5.364
 5998SOL     OW20000   5.516   2.273   8.759
 5998SOL    HW120001   5.604   2.292   8.727
 5998SOL    HW220002   5.490   2.352   8.806
 5999SOL     OW20003   9.187   7.466   8.842
 5999SOL    HW120004   9.094   7.485   8.828
 5999SOL    HW220005   9.233   7.531   8.789
 6000SOL     OW20006   4.204   5.155   3.979
 6000SOL    HW120007   4.206   5.208   4.058
 6000SOL    HW220008   4.123   5.181   3.935
 6001SOL     OW20009   0.825   7.601   0.923
 6001SOL    HW120010   0.783   7.685   0.906
 6001SOL    HW220011   0.918   7.616   0.904
 6002SOL     OW20012   6.241   9.307   8.601
 6002SOL    HW120013   6.267   9.218   8.625
 6002SOL    HW220014   6.200   9.342   8.680
 6003SOL     OW20015   2.901   8.486   6.354
 6003SOL    HW120016   2.912   8.391   6.346
 6003SOL    HW220017   2.983   8.516   6.394
 6004SOL     OW20018   4.924   4.618   5.384
 6004SOL    HW120019   4.960   4.704   5.402
 6004SOL    HW220020   4.994   4.557   5.409
 6005SOL     OW20021  10.027   2.654   2.031
 6005SOL    HW120022  10.083   2.594   1.981
 6005SOL    HW220023   9.999   2.719   1.967
 6006SOL     OW20024   9.573   5.073   3.214
 6006SOL    HW120025   9.549   4.985   3.245
 6006SOL    HW220026   9.668   5.077   3.225
 6007SOL     OW20027   2.996   9.830   6.666
 6007SOL    HW120028   2.992   9.892   6.594
 6007SOL    HW220029   2.938   9.866   6.732
 6008SOL     OW20030   0.100   9.778   8.605
 6008SOL    HW120031   0.125   9.717   8.535
 6008SOL    HW220032   0.176   9.781   8.662
 6009SOL     OW20033   1.437   8.365   1.322
 6009SOL    HW120034   1.405   8.356   1.411
 6009SOL    HW220035   1.361   8.347   1.267
 6010SOL     OW20036   2.842   0.645   7.178
 6010SOL    HW120037   2.858   0.738   7.189
 6010SOL    HW220038   2.774   0.624   7.242
 6011SOL     OW20039   1.666   8.534   9.041
 6011SOL    HW120040   1.752   8.570   9.063
 6011SOL    HW220041   1.680   8.490   8.957
 6012SOL     OW20042   1.371   6.242   6.768
 6012SOL    HW120043   1.371   6.295   6.847
 6012SOL    HW220044   1.423   6.164   6.791
 6013SOL     OW20045   4.279   7.900   4.834
 6013SOL    HW120046   4.226   7.906   4.754
 6013SOL    HW220047   4.227   7.945   4.901
 6014SOL     OW20048  11.025   5.764   9.202
 6014SOL    HW120049  11.038   5.690   9.142
 6014SOL    HW220050  10.959   5.818   9.158
 6015SOL     OW20051   0.535   2.791   4.030
 6015SOL    HW120052   0.613   2.755   4.072
 6015SOL    HW220053   0.512   2.866   4.083
 6016SOL     OW20054   2.315   0.602  10.928
 6016SOL    HW120055   2.289   0.539  10.860
 6016SOL    HW220056   2.281   0.565  11.009
 6017SOL     OW20057   7.207   3.003   3.835
 6017SOL    HW120058   7.158   2.940   3.887
 6017SOL    HW220059   7.167   3.087   3.855
 6018SOL     OW20060   1.518   5.909   2.999
 6018SOL    HW120061   1.540   5.897   2.906
 6018SOL    HW220062   1.487   5.823   3.028
 6019SOL     OW20063   1.475   5.508   3.799
 6019SOL    HW120064   1.468   5.580   3.861
 6019SOL    HW220065   1.452   5.547   3.714
 6020SOL     OW20066   6.848  10.069   4.618
 6020SOL    HW120067   6.918  10.133   4.631
 6020SOL    HW220068   6.828  10.037   4.706
 6021SOL     OW20069   6.399   6.175   1.717
 6021SOL    HW120070   6.452   6.246   1.753
 6021SOL    HW220071   6.410   6.182   1.622
 6022SOL     OW20072   1.815   4.620   6.148
 6022SOL    HW120073   1.751   4.577   6.091
 6022SOL    HW220074   1.762   4.675   6.205
 6023SOL     OW20075   3.461   7.574   3.565
 6023SOL    HW120076   3.527   7.634   3.598
 6023SOL    HW220077   3.378   7.620   3.576
 6024SOL     OW20078   6.204  10.016   0.799
 6024SOL    HW120079   6.135   9.949   0.794
 6024SOL    HW220080   6.158  10.099   0.789
 6025SOL     OW20081   9.312   7.044   7.561
 6025SOL    HW120082   9.301   7.004   7.474
 6025SOL    HW220083   9.372   7.117   7.546
 6026SOL     OW20084   5.878  11.043   8.478
 6026SOL    HW120085   5.790  11.016   8.451
 6026SOL    HW220086   5.877  11.139   8.472
 6027SOL     OW20087   8.109   4.610   6.526
 6027SOL    HW120088   8.039   4.675   6.532
 6027SOL    HW220089   8.185   4.660   6.497
 6028SOL     OW20090   1.146   1.523   8.360
 6028SOL    HW120091   1.105   1.597   8.315
 6028SOL    HW220092   1.192   1.562   8.434
 6029SOL     OW20093   4.021   8.007   9.809
 6029SOL    HW120094   4.100   8.001   9.754
 6029SOL    HW220095   4.015   7.921   9.850
 6030SOL     OW20096   2.188   4.840   9.569
 6030SOL    HW120097   2.278   4.836   9.537
 6030SOL    HW220098   2.140   4.780   9.512
 6031SOL     OW20099   9.589   3.702  10.563
 6031SOL    HW120100   9.547   3.617  10.579
 6031SOL    HW220101   9.667   3.700  10.618
 6032SOL     OW20102   0.429   9.122   8.735
 6032SOL    HW120103   0.493   9.188   8.709
 6032SOL    HW220104   0.458   9.042   8.690
 6033SOL     OW20105   5.395  10.574   0.703
 6033SOL    HW120106   5.313  10.614   0.674
 6033SOL    HW220107   5.417  10.512   0.633
 6034SOL     OW20108   0.186   5.659   1.960
 6034SOL    HW120109   0.167   5.588   1.898
 6034SOL    HW220110   0.134   5.733   1.928
 6035SOL     OW20111   7.076   6.566   9.025
 6035SOL    HW120112   7.093   6.572   9.119
 6035SOL    HW220113   6.981   6.557   9.018
 6036SOL     OW20114   3.457  10.379   8.966
 6036SOL    HW120115   3.467  10.425   8.883
 6036SOL    HW220116   3.445  10.448   9.031
 6037SOL     OW20117   5.234  10.174   8.803
 6037SOL    HW120118   5.318  10.157   8.846
 6037SOL    HW220119   5.228  10.269   8.798
 6038SOL     OW20120   1.626   5.473   6.513
 6038SOL    HW120121   1.561   5.444   6.449
 6038SOL    HW220122   1.710   5.463   6.467
 6039SOL     OW20123   3.210  10.227   9.873
 6039SOL    HW120124   3.191  10.139   9.906
 6039SOL    HW220125   3.166  10.230   9.788
 6040SOL     OW20126   6.382   5.719   4.173
 6040SOL    HW120127   6.437   5.647   4.140
 6040SOL    HW220128   6.436   5.761   4.239
 6041SOL     OW20129   2.250   9.634   4.665
 6041SOL    HW120130   2.306   9.710   4.651
 6041SOL    HW220131   2.172   9.669   4.708
 6042SOL     OW20132   3.049   9.580   9.288
 6042SOL    HW120133   2.998   9.557   9.210
 6042SOL    HW220134   3.071   9.672   9.276
 6043SOL     OW20135   9.592   2.068   6.592
 6043SOL    HW120136   9.623   2.043   6.679
 6043SOL    HW220137   9.505   2.029   6.585
 6044SOL     OW20138  10.091  10.862   6.937
 6044SOL    HW120139  10.010  10.890   6.979
 6044SOL    HW220140  10.117  10.783   6.984
 6045SOL     OW20141   0.137   8.553   0.176
 6045SOL    HW120142   0.195   8.603   0.120
 6045SOL    HW220143   0.097   8.488   0.118
 6046SOL     OW20144   3.314  10.832   8.898
 6046SOL    HW120145   3.240  10.886   8.925
 6046SOL    HW220146   3.349  10.876   8.820
 6047SOL     OW20147   0.788   7.779   6.802
 6047SOL    HW120148   0.726   7.798   6.872
 6047SOL    HW220149   0.866   7.748   6.847
 6048SOL     OW20150   9.990   7.610   1.444
 6048SOL    HW120151  10.030   7.682   1.395
 6048SOL    HW220152   9.918   7.580   1.388
 6049SOL     OW20153   6.975   4.800   8.195
 6049SOL    HW120154   7.024   4.819   8.115
 6049SOL    HW220155   7.002   4.711   8.219
 6050SOL     OW20156   9.144   6.398   0.600
 6050SOL    HW120157   9.200   6.333   0.556
 6050SOL    HW220158   9.141   6.370   0.691
 6051SOL     OW20159   1.177   6.682   9.386
 6051SOL    HW120160   1.222   6.611   9.433
 6051SOL    HW220161   1.161   6.749   9.452
 6052SOL     OW20162   0.884   2.393   2.501
 6052SOL    HW120163   0.865   2.364   2.411
 6052SOL    HW220164   0.974   2.426   2.497
 6053SOL     OW20165   4.024   7.383   8.938
 6053SOL    HW120166   4.025   7.445   9.011
 6053SOL    HW220167   3.994   7.434   8.863
 6054SOL     OW20168  10.788   1.428   0.775
 6054SOL    HW120169  10.793   1.403   0.867
 6054SOL    HW220170  10.706   1.390   0.744
 6055SOL     OW20171   3.974   5.684   1.324
 6055SOL    HW120172   3.885   5.718   1.328
 6055SOL    HW220173   4.027   5.746   1.374
 6056SOL     OW20174   4.102   6.723  10.246
 6056SOL    HW120175   4.189   6.733  10.207
 6056SOL    HW220176   4.093   6.798  10.304
 6057SOL     OW20177   2.939   9.410   1.640
 6057SOL    HW120178   3.021   9.459   1.644
 6057SOL    HW220179   2.946   9.358   1.560
 6058SOL     OW20180   2.587   0.513   0.155
 6058SOL    HW120181   2.543   0.583   0.107
 6058SOL    HW220182   2.658   0.557   0.202
 6059SOL     OW20183   6.250   5.085   4.160
 6059SOL    HW120184   6.333   5.093   4.113
 6059SOL    HW220185   6.271   5.105   4.251
 6060SOL     OW20186   2.919  10.618   6.693
 6060SOL    HW120187   2.917  10.681   6.621
 6060SOL    HW220188   3.007  10.581   6.690
 6061SOL     OW20189   0.054   7.394   9.838
 6061SOL    HW120190   0.036   7.487   9.852
 6061SOL    HW220191   0.149   7.389   9.827
 6062SOL     OW20192   8.909   8.598   9.145
 6062SOL    HW120193   8.886   8.631   9.231
 6062SOL    HW220194   8.994   8.637   9.126
 6063SOL     OW20195   3.469   5.541   9.170
 6063SOL    HW120196   3.519   5.472   9.214
 6063SOL    HW220197   3.519   5.621   9.187
 6064SOL     OW20198   0.372   7.006   9.385
 6064SOL    HW120199   0.459   7.022   9.420
 6064SOL    HW220200   0.333   6.943   9.446
 6065SOL     OW20201   8.487  10.359   0.475
 6065SOL    HW120202   8.464  10.451   0.479
 6065SOL    HW220203   8.504  10.343   0.382
 6066SOL     OW20204   4.933   6.329   4.901
 6066SOL    HW120205   5.003   6.391   4.882
 6066SOL    HW220206   4.967   6.276   4.973
 6067SOL     OW20207  10.161   2.757   8.031
 6067SOL    HW120208  10.216   2.679   8.038
 6067SOL    HW220209  10.210   2.815   7.973
 6068SOL     OW20210   7.587   4.237   8.578
 6068SOL    HW120211   7.600   4.152   8.535
 6068SOL    HW220212   7.520   4.220   8.644
 6069SOL     OW20213   3.251   8.193   9.505
 6069SOL    HW120214   3.255   8.098   9.518
 6069SOL    HW220215   3.177   8.221   9.558
 6070SOL     OW20216   7.614   3.689  10.429
 6070SOL    HW120217   7.559   3.730  10.496
 6070SOL    HW220218   7.561   3.691  10.349
 6071SOL     OW20219   1.722   0.171   8.323
 6071SOL    HW120220   1.721   0.136   8.233
 6071SOL    HW220221   1.730   0.265   8.312
 6072SOL     OW20222   1.753   4.382   6.765
 6072SOL    HW120223   1.751   4.321   6.838
 6072SOL    HW220224   1.666   4.375   6.725
 6073SOL     OW20225   0.507   3.161   9.960
 6073SOL    HW120226   0.529   3.122   9.875
 6073SOL    HW220227   0.522   3.090  10.023
 6074SOL     OW20228   4.446  10.363   8.690
 6074SOL    HW120229   4.526  10.336   8.645
 6074SOL    HW220230   4.405  10.425   8.630
 6075SOL     OW20231   0.634  10.384   4.827
 6075SOL    HW120232   0.540  10.365   4.827
 6075SOL    HW220233   0.650  10.425   4.742
 6076SOL     OW20234   8.004   5.159   9.132
 6076SOL    HW120235   8.061   5.214   9.078
 6076SOL    HW220236   8.010   5.197   9.219
 6077SOL     OW20237   3.440   0.088   8.610
 6077SOL    HW120238   3.486   0.014   8.649
 6077SOL    HW220239   3.504   0.159   8.609
 6078SOL     OW20240   9.606   1.669   4.542
 6078SOL    HW120241   9.609   1.690   4.635
 6078SOL    HW220242   9.590   1.752   4.498
 6079SOL     OW20243  10.580   8.455   2.919
 6079SOL    HW120244  10.558   8.442   2.826
 6079SOL    HW220245  10.510   8.411   2.967
 6080SOL     OW20246   3.034   9.793   8.279
 6080SOL    HW120247   3.043   9.719   8.339
 6080SOL    HW220248   2.941   9.793   8.255
 6081SOL     OW20249   2.572   2.243   7.296
 6081SOL    HW120250   2.549   2.151   7.283
 6081SOL    HW220251   2.581   2.252   7.391
 6082SOL     OW20252   2.168   0.148   1.824
 6082SOL    HW120253   2.100   0.161   1.757
 6082SOL    HW220254   2.249   0.137   1.774
 6083SOL     OW20255   1.593   7.298   0.036
 6083SOL    HW120256   1.641   7.339  -0.035
 6083SOL    HW220257   1.540   7.230  -0.006
 6084SOL     OW20258   9.766   8.906   6.919
 6084SOL    HW120259   9.820   8.982   6.900
 6084SOL    HW220260   9.678   8.932   6.894
 6085SOL     OW20261  10.136   7.219   7.275
 6085SOL    HW120262  10.137   7.130   7.311
 6085SOL    HW220263  10.214   7.260   7.312
 6086SOL     OW20264   1.647   5.719  10.076
 6086SOL    HW120265   1.739   5.719  10.103
 6086SOL    HW220266   1.620   5.810  10.081
 6087SOL     OW20267   0.791   6.606   6.351
 6087SOL    HW120268   0.766   6.616   6.259
 6087SOL    HW220269   0.774   6.513   6.370
 6088SOL     OW20270  10.708   9.767  10.281
 6088SOL    HW120271  10.712   9.848  10.231
 6088SOL    HW220272  10.719   9.794  10.372
 6089SOL     OW20273   3.262   0.007   6.548
 6089SOL    HW120274   3.271   0.072   6.617
 6089SOL    HW220275   3.347   0.006   6.504
 6090SOL     OW20276  10.863   8.481   0.284
 6090SOL    HW120277  10.820   8.566   0.288
 6090SOL    HW220278  10.870   8.462   0.190
 6091SOL     OW20279   3.442   8.002   8.642
 6091SOL    HW120280   3.456   7.981   8.549
 6091SOL    HW220281   3.458   7.919   8.688
 6092SOL     OW20282  11.070   0.495   7.051
 6092SOL    HW120283  11.006   0.565   7.040
 6092SOL    HW220284  11.147   0.538   7.089
 6093SOL     OW20285   8.070   2.043  11.096
 6093SOL    HW120286   8.150   2.076  11.055
 6093SOL    HW220287   8.013   2.020  11.022
 6094SOL     OW20288   6.738   9.826   9.868
 6094SOL    HW120289   6.744   9.920   9.881
 6094SOL    HW220290   6.829   9.795   9.871
 6095SOL     OW20291   4.693   5.080   9.294
 6095SOL    HW120292   4.638   5.090   9.371
 6095SOL    HW220293   4.686   4.987   9.271
 6096SOL     OW20294   3.823   0.576   8.451
 6096SOL    HW120295   3.842   0.518   8.525
 6096SOL    HW220296   3.849   0.663   8.481
 6097SOL     OW20297   3.539  10.690   7.926
 6097SOL    HW120298   3.584  10.608   7.947
 6097SOL    HW220299   3.550  10.700   7.831
 6098SOL     OW20300   8.489   6.167   7.035
 6098SOL    HW120301   8.428   6.232   7.000
 6098SOL    HW220302   8.433   6.097   7.068
 6099SOL     OW20303  10.899   3.995   2.467
 6099SOL    HW120304  10.937   3.961   2.548
 6099SOL    HW220305  10.919   3.928   2.401
 6100SOL     OW20306  10.690   0.005  10.482
 6100SOL    HW120307  10.603  -0.035  10.484
 6100SOL    HW220308  10.712   0.021  10.574
 6101SOL     OW20309   0.522   5.088  10.943
 6101SOL    HW120310   0.445   5.059  10.894
 6101SOL    HW220311   0.584   5.015  10.935
 6102SOL     OW20312  10.309   5.455   5.175
 6102SOL    HW120313  10.367   5.443   5.099
 6102SOL    HW220314  10.271   5.542   5.162
 6103SOL     OW20315   7.809   8.533   8.930
 6103SOL    HW120316   7.746   8.597   8.898
 6103SOL    HW220317   7.789   8.453   8.880
 6104SOL     OW20318   1.793   1.196   8.755
 6104SOL    HW120319   1.816   1.270   8.699
 6104SOL    HW220320   1.845   1.123   8.720
 6105SOL     OW20321   0.749  10.317   8.385
 6105SOL    HW120322   0.798  10.312   8.467
 6105SOL    HW220323   0.759  10.229   8.346
 6106SOL     OW20324   4.828   7.875   0.518
 6106SOL    HW120325   4.906   7.922   0.488
 6106SOL    HW220326   4.825   7.796   0.464
 6107SOL     OW20327   3.132   1.810   7.049
 6107SOL    HW120328   3.180   1.883   7.011
 6107SOL    HW220329   3.067   1.787   6.982
 6108SOL     OW20330   6.120   7.022   6.738
 6108SOL    HW120331   6.169   6.979   6.808
 6108SOL    HW220332   6.037   7.046   6.778
 6109SOL     OW20333   3.468   1.675   1.783
 6109SOL    HW120334   3.536   1.609   1.770
 6109SOL    HW220335   3.387   1.632   1.755
 6110SOL     OW20336   2.713   4.180   0.838
 6110SOL    HW120337   2.696   4.119   0.909
 6110SOL    HW220338   2.699   4.266   0.876
 6111SOL     OW20339   4.057   2.014   7.408
 6111SOL    HW120340   4.149   1.988   7.413
 6111SOL    HW220341   4.030   2.027   7.499
 6112SOL     OW20342   2.567   5.932   7.237
 6112SOL    HW120343   2.657   5.913   7.208
 6112SOL    HW220344   2.543   6.011   7.189
 6113SOL     OW20345   3.905   5.651   9.131
 6113SOL    HW120346   3.829   5.689   9.174
 6113SOL    HW220347   3.874   5.626   9.044
 6114SOL     OW20348   6.778   3.280   9.742
 6114SOL    HW120349   6.712   3.317   9.684
 6114SOL    HW220350   6.767   3.185   9.732
 6115SOL     OW20351   0.279   6.467   0.161
 6115SOL    HW120352   0.317   6.421   0.086
 6115SOL    HW220353   0.353   6.510   0.203
 6116SOL     OW20354   9.741   7.090  10.151
 6116SOL    HW120355   9.776   7.173  10.183
 6116SOL    HW220356   9.806   7.024  10.178
 6117SOL     OW20357   1.760   3.706   1.835
 6117SOL    HW120358   1.713   3.651   1.772
 6117SOL    HW220359   1.803   3.772   1.781
 6118SOL     OW20360   0.618   4.073   2.763
 6118SOL    HW120361   0.533   4.087   2.722
 6118SOL    HW220362   0.671   4.146   2.733
 6119SOL     OW20363   6.732   0.393   8.489
 6119SOL    HW120364   6.659   0.451   8.512
 6119SOL    HW220365   6.697   0.304   8.500
 6120SOL     OW20366  10.592   3.330   2.108
 6120SOL    HW120367  10.577   3.247   2.153
 6120SOL    HW220368  10.510   3.347   2.061
 6121SOL     OW20369   8.342   0.891   4.846
 6121SOL    HW120370   8.331   0.980   4.877
 6121SOL    HW220371   8.437   0.875   4.851
 6122SOL     OW20372   9.235   3.030  10.003
 6122SOL    HW120373   9.219   3.059  10.092
 6122SOL    HW220374   9.150   3.001   9.971
 6123SOL     OW20375   3.745   6.293  10.129
 6123SOL    HW120376   3.808   6.232  10.167
 6123SOL    HW220377   3.661   6.264  10.163
 6124SOL     OW20378   1.738   1.034   7.187
 6124SOL    HW120379   1.784   1.003   7.265
 6124SOL    HW220380   1.657   0.983   7.185
 6125SOL     OW20381  10.982   8.834  10.826
 6125SOL    HW120382  11.038   8.910  10.840
 6125SOL    HW220383  11.031   8.779  10.764
 6126SOL     OW20384   8.508   4.839   6.904
 6126SOL    HW120385   8.504   4.772   6.835
 6126SOL    HW220386   8.476   4.794   6.982
 6127SOL     OW20387  10.103   7.984  10.471
 6127SOL    HW120388  10.112   7.893  10.499
 6127SOL    HW220389  10.076   8.031  10.550
 6128SOL     OW20390  10.773   7.114   0.589
 6128SOL    HW120391  10.804   7.066   0.512
 6128SOL    HW220392  10.807   7.202   0.577
 6129SOL     OW20393   2.609   1.897  10.070
 6129SOL    HW120394   2.557   1.922  10.146
 6129SOL    HW220395   2.690   1.862  10.107
 6130SOL     OW20396   4.589  10.763  10.757
 6130SOL    HW120397   4.537  10.794  10.831
 6130SOL    HW220398   4.674  10.740  10.795
 6131SOL     OW20399   3.940   8.439   4.937
 6131SOL    HW120400   3.975   8.363   4.983
 6131SOL    HW220401   4.015   8.475   4.890
 6132SOL     OW20402   7.281   1.237  10.155
 6132SOL    HW120403   7.220   1.271  10.220
 6132SOL    HW220404   7.305   1.313  10.102
 6133SOL     OW20405   8.217   6.700  10.361
 6133SOL    HW120406   8.304   6.738  10.347
 6133SOL    HW220407   8.168   6.767  10.409
 6134SOL     OW20408   0.630   0.079   4.272
 6134SOL    HW120409   0.662   0.051   4.358
 6134SOL    HW220410   0.590   0.000   4.235
 6135SOL     OW20411   1.153   9.586   6.404
 6135SOL    HW120412   1.181   9.677   6.399
 6135SOL    HW220413   1.151   9.557   6.312
 6136SOL     OW20414  10.616   9.828   4.795
 6136SOL    HW120415  10.602   9.915   4.832
 6136SOL    HW220416  10.536   9.780   4.817
 6137SOL     OW20417   1.284   2.965  10.188
 6137SOL    HW120418   1.230   3.040  10.165
 6137SOL    HW220419   1.374   2.998  10.189
 6138SOL     OW20420   0.525   6.751   9.298
 6138SOL    HW120421   0.571   6.769   9.216
 6138SOL    HW220422   0.535   6.831   9.349
 6139SOL     OW20423   0.669   5.527   4.718
 6139SOL    HW120424   0.749   5.540   4.667
 6139SOL    HW220425   0.622   5.458   4.670
 6140SOL     OW20426   6.097   2.819   6.541
 6140SOL    HW120427   6.080   2.886   6.475
 6140SOL    HW220428   6.100   2.867   6.623
 6141SOL     OW20429  10.203   9.915  10.393
 6141SOL    HW120430  10.161   9.893  10.310
 6141SOL    HW220431  10.132   9.946  10.448
 6142SOL     OW20432   2.341   8.960   6.518
 6142SOL    HW120433   2.420   8.907   6.530
 6142SOL    HW220434   2.351   9.033   6.579
 6143SOL     OW20435   0.159   5.864   0.240
 6143SOL    HW120436   0.220   5.937   0.240
 6143SOL    HW220437   0.192   5.804   0.307
 6144SOL     OW20438  10.214   6.075   8.366
 6144SOL    HW120439  10.157   6.005   8.398
 6144SOL    HW220440  10.156   6.150   8.354
 6145SOL     OW20441   5.139   0.477   9.672
 6145SOL    HW120442   5.163   0.410   9.608
 6145SOL    HW220443   5.049   0.456   9.696
 6146SOL     OW20444   1.620   8.291  10.222
 6146SOL    HW120445   1.545   8.249  10.264
 6146SOL    HW220446   1.597   8.292  10.129
 6147SOL     OW20447   4.527   8.572   9.784
 6147SOL    HW120448   4.516   8.477   9.794
 6147SOL    HW220449   4.604   8.593   9.837
 6148SOL     OW20450  10.709   5.704   6.897
 6148SOL    HW120451  10.800   5.704   6.928
 6148SOL    HW220452  10.698   5.619   6.854
 6149SOL     OW20453   5.462   2.133   6.426
 6149SOL    HW120454   5.523   2.060   6.434
 6149SOL    HW220455   5.421   2.140   6.512
 6150SOL     OW20456   4.624   3.803   1.975
 6150SOL    HW120457   4.680   3.727   1.993
 6150SOL    HW220458   4.627   3.813   1.880
 6151SOL     OW20459   6.696  10.105   9.016
 6151SOL    HW120460   6.722  10.115   9.107
 6151SOL    HW220461   6.607  10.141   9.012
 6152SOL     OW20462  10.674  10.663   0.111
 6152SOL    HW120463  10.680  10.570   0.132
 6152SOL    HW220464  10.602  10.670   0.049
 6153SOL     OW20465   3.095   9.599   0.381
 6153SOL    HW120466   3.189   9.605   0.363
 6153SOL    HW220467   3.089   9.579   0.474
 6154SOL     OW20468   0.213   6.948   6.286
 6154SOL    HW120469   0.140   6.948   6.224
 6154SOL    HW220470   0.173   6.925   6.370
 6155SOL     OW20471   9.984   7.594   5.923
 6155SOL    HW120472   9.974   7.663   5.987
 6155SOL    HW220473   9.918   7.613   5.856
 6156SOL     OW20474   0.587   6.397  10.542
 6156SOL    HW120475   0.643   6.370  10.469
 6156SOL    HW220476   0.549   6.480  10.513
 6157SOL     OW20477   1.049   6.611   8.112
 6157SOL    HW120478   1.077   6.694   8.151
 6157SOL    HW220479   1.122   6.586   8.055
 6158SOL     OW20480   0.524   2.596   3.317
 6158SOL    HW120481   0.530   2.690   3.329
 6158SOL    HW220482   0.432   2.579   3.298
 6159SOL     OW20483   0.572   6.726   3.493
 6159SOL    HW120484   0.581   6.768   3.578
 6159SOL    HW220485   0.514   6.784   3.443
 6160SOL     OW20486   6.920   4.929  10.864
 6160SOL    HW120487   6.915   4.996  10.796
 6160SOL    HW220488   7.013   4.908  10.870
 6161SOL     OW20489   1.126   3.902   0.828
 6161SOL    HW120490   1.119   3.949   0.745
 6161SOL    HW220491   1.037   3.901   0.863
 6162SOL     OW20492   6.966   0.668   5.265
 6162SOL    HW120493   7.020   0.724   5.209
 6162SOL    HW220494   7.028   0.604   5.301
 6163SOL     OW20495   1.869  11.095   3.187
 6163SOL    HW120496   1.809  11.158   3.147
 6163SOL    HW220497   1.901  11.043   3.113
 6164SOL     OW20498   3.504   5.972   7.133
 6164SOL    HW120499   3.559   6.019   7.195
 6164SOL    HW220500   3.523   6.012   7.048
 6165SOL     OW20501   2.182   4.837   9.859
 6165SOL    HW120502   2.146   4.811   9.774
 6165SOL    HW220503   2.190   4.755   9.907
 6166SOL     OW20504   3.064   6.343   0.135
 6166SOL    HW120505   3.064   6.303   0.222
 6166SOL    HW220506   3.050   6.436   0.152
 6167SOL     OW20507   5.402   9.072  10.141
 6167SOL    HW120508   5.374   8.980  10.146
 6167SOL    HW220509   5.467   9.073  10.071
 6168SOL     OW20510   0.773   4.661  10.786
 6168SOL    HW120511   0.762   4.566  10.783
 6168SOL    HW220512   0.831   4.680  10.712
 6169SOL     OW20513   3.429   3.464   0.219
 6169SOL    HW120514   3.344   3.423   0.230
 6169SOL    HW220515   3.430   3.493   0.128
 6170SOL     OW20516   9.494   3.372   0.810
 6170SOL    HW120517   9.408   3.390   0.847
 6170SOL    HW220518   9.478   3.360   0.716
 6171SOL     OW20519   6.226   5.208   7.790
 6171SOL    HW120520   6.231   5.224   7.884
 6171SOL    HW220521   6.172   5.129   7.782
 6172SOL     OW20522   2.396   0.499   4.834
 6172SOL    HW120523   2.399   0.582   4.787
 6172SOL    HW220524   2.463   0.507   4.902
 6173SOL     OW20525   2.126   9.379   7.208
 6173SOL    HW120526   2.090   9.416   7.127
 6173SOL    HW220527   2.201   9.327   7.179
 6174SOL     OW20528   5.604   8.642   7.038
 6174SOL    HW120529   5.672   8.660   6.972
 6174SOL    HW220530   5.652   8.606   7.112
 6175SOL     OW20531   8.473   8.822   3.624
 6175SOL    HW120532   8.525   8.755   3.579
 6175SOL    HW220533   8.455   8.888   3.557
 6176SOL     OW20534   8.402   7.063   6.778
 6176SOL    HW120535   8.433   7.011   6.703
 6176SOL    HW220536   8.470   7.129   6.790
 6177SOL     OW20537   8.185   1.976   0.827
 6177SOL    HW120538   8.229   2.057   0.802
 6177SOL    HW220539   8.256   1.915   0.847
 6178SOL     OW20540   2.248   3.170   3.664
 6178SOL    HW120541   2.283   3.258   3.650
 6178SOL    HW220542   2.213   3.172   3.753
 6179SOL     OW20543   4.825  10.642   7.967
 6179SOL    HW120544   4.854  10.730   7.942
 6179SOL    HW220545   4.902  10.602   8.008
 6180SOL     OW20546   5.157   4.957   4.566
 6180SOL    HW120547   5.201   4.878   4.597
 6180SOL    HW220548   5.166   4.954   4.470
 6181SOL     OW20549   0.738   4.693   6.949
 6181SOL    HW120550   0.816   4.747   6.935
 6181SOL    HW220551   0.738   4.632   6.875
 6182SOL     OW20552   2.660   4.727   0.402
 6182SOL    HW120553   2.614   4.763   0.478
 6182SOL    HW220554   2.741   4.778   0.396
 6183SOL     OW20555   9.027   9.365   6.082
 6183SOL    HW120556   9.104   9.410   6.046
 6183SOL    HW220557   9.042   9.272   6.061
 6184SOL     OW20558   7.060  10.094   7.770
 6184SOL    HW120559   7.100  10.063   7.688
 6184SOL    HW220560   7.104  10.044   7.838
 6185SOL     OW20561   2.609   3.245   0.943
 6185SOL    HW120562   2.600   3.336   0.968
 6185SOL    HW220563   2.527   3.204   0.969
 6186SOL     OW20564   0.973   1.954   1.230
 6186SOL    HW120565   0.970   1.967   1.135
 6186SOL    HW220566   1.033   1.880   1.242
 6187SOL     OW20567   3.334   6.163   1.038
 6187SOL    HW120568   3.423   6.163   1.002
 6187SOL    HW220569   3.339   6.106   1.115
 6188SOL     OW20570   5.880   2.334   8.311
 6188SOL    HW120571   5.932   2.410   8.338
 6188SOL    HW220572   5.944   2.276   8.269
 6189SOL     OW20573   2.743   7.695  11.100
 6189SOL    HW120574   2.663   7.734  11.134
 6189SOL    HW220575   2.805   7.767  11.093
 6190SOL     OW20576   2.581   7.060   4.604
 6190SOL    HW120577   2.630   7.049   4.522
 6190SOL    HW220578   2.534   6.977   4.615
 6191SOL     OW20579   6.130   9.335   5.845
 6191SOL    HW120580   6.100   9.273   5.911
 6191SOL    HW220581   6.064   9.403   5.844
 6192SOL     OW20582   5.049  10.824   4.345
 6192SOL    HW120583   5.114  10.892   4.363
 6192SOL    HW220584   4.996  10.819   4.424
 6193SOL     OW20585   5.178   3.234   1.220
 6193SOL    HW120586   5.235   3.193   1.154
 6193SOL    HW220587   5.237   3.263   1.289
 6194SOL     OW20588   7.875   0.711   1.492
 6194SOL    HW120589   7.791   0.677   1.461
 6194SOL    HW220590   7.938   0.681   1.426
 6195SOL     OW20591  10.074   0.430   0.641
 6195SOL    HW120592  10.102   0.419   0.550
 6195SOL    HW220593  10.155   0.421   0.692
 6196SOL     OW20594   0.618   5.365   7.554
 6196SOL    HW120595   0.697   5.385   7.604
 6196SOL    HW220596   0.612   5.435   7.489
 6197SOL     OW20597   6.960   6.509  10.911
 6197SOL    HW120598   6.981   6.454  10.986
 6197SOL    HW220599   7.033   6.494  10.850
 6198SOL     OW20600   0.170   0.397   1.883
 6198SOL    HW120601   0.130   0.443   1.957
 6198SOL    HW220602   0.263   0.420   1.887
 6199SOL     OW20603   5.822   9.615   8.353
 6199SOL    HW120604   5.900   9.577   8.393
 6199SOL    HW220605   5.750   9.587   8.409
 6200SOL     OW20606   5.913   1.188  10.516
 6200SOL    HW120607   5.831   1.191  10.565
 6200SOL    HW220608   5.891   1.144  10.434
 6201SOL     OW20609   2.152   4.537   4.694
 6201SOL    HW120610   2.099   4.616   4.705
 6201SOL    HW220611   2.219   4.561   4.629
 6202SOL     OW20612   4.543   4.455   2.880
 6202SOL    HW120613   4.577   4.394   2.945
 6202SOL    HW220614   4.598   4.533   2.889
 6203SOL     OW20615   1.449   4.954   1.794
 6203SOL    HW120616   1.436   5.009   1.717
 6203SOL    HW220617   1.378   4.978   1.853
 6204SOL     OW20618   8.915   3.425   2.742
 6204SOL    HW120619   8.860   3.347   2.731
 6204SOL    HW220620   8.908   3.471   2.658
 6205SOL     OW20621   3.347  10.329   1.017
 6205SOL    HW120622   3.383  10.413   0.989
 6205SOL    HW220623   3.335  10.337   1.111
 6206SOL     OW20624   6.791   6.064  10.844
 6206SOL    HW120625   6.815   5.974  10.820
 6206SOL    HW220626   6.875   6.108  10.859
 6207SOL     OW20627   8.851   0.180  10.488
 6207SOL    HW120628   8.766   0.191  10.445
 6207SOL    HW220629   8.845   0.232  10.567
 6208SOL     OW20630   3.956   0.714  10.234
 6208SOL    HW120631   3.866   0.747  10.227
 6208SOL    HW220632   3.997   0.770  10.300
 6209SOL     OW20633   6.729   0.560   1.930
 6209SOL    HW120634   6.652   0.614   1.945
 6209SOL    HW220635   6.752   0.525   2.016
 6210SOL     OW20636   3.425  10.801   3.590
 6210SOL    HW120637   3.369  10.822   3.515
 6210SOL    HW220638   3.365  10.776   3.660
 6211SOL     OW20639   0.551   5.882   7.576
 6211SOL    HW120640   0.518   5.928   7.499
 6211SOL    HW220641   0.643   5.909   7.583
 6212SOL     OW20642   9.944   8.888   8.220
 6212SOL    HW120643   9.904   8.974   8.209
 6212SOL    HW220644   9.871   8.826   8.216
 6213SOL     OW20645   1.751   9.085   0.933
 6213SOL    HW120646   1.743   9.134   0.851
 6213SOL    HW220647   1.845   9.085   0.951
 6214SOL     OW20648   5.397   1.388   3.405
 6214SOL    HW120649   5.328   1.325   3.384
 6214SOL    HW220650   5.476   1.334   3.414
 6215SOL     OW20651   0.121   9.212   5.331
 6215SOL    HW120652   0.161   9.148   5.272
 6215SOL    HW220653   0.027   9.198   5.321
 6216SOL     OW20654   8.238   2.683   2.231
 6216SOL    HW120655   8.186   2.603   2.237
 6216SOL    HW220656   8.190   2.738   2.169
 6217SOL     OW20657   2.452   6.158   5.408
 6217SOL    HW120658   2.459   6.146   5.502
 6217SOL    HW220659   2.435   6.070   5.374
 6218SOL     OW20660  10.996   4.736  10.558
 6218SOL    HW120661  11.051   4.744  10.479
 6218SOL    HW220662  10.974   4.826  10.581
 6219SOL     OW20663   1.864   7.887   1.998
 6219SOL    HW120664   1.864   7.868   1.904
 6219SOL    HW220665   1.773   7.910   2.018
 6220SOL     OW20666   3.560   7.056  10.301
 6220SOL    HW120667   3.496   7.066  10.230
 6220SOL    HW220668   3.515   7.087  10.379
 6221SOL     OW20669   1.262   5.567   9.652
 6221SOL    HW120670   1.199   5.608   9.711
 6221SOL    HW220671   1.232   5.591   9.564
 6222SOL     OW20672   5.949   2.056   5.038
 6222SOL    HW120673   6.013   2.120   5.069
 6222SOL    HW220674   5.864   2.098   5.051
 6223SOL     OW20675   6.126   3.645   7.943
 6223SOL    HW120676   6.146   3.565   7.992
 6223SOL    HW220677   6.031   3.655   7.951
 6224SOL     OW20678   7.058   7.273   1.922
 6224SOL    HW120679   7.040   7.185   1.957
 6224SOL    HW220680   7.138   7.301   1.967
 6225SOL     OW20681   2.733   0.218   0.131
 6225SOL    HW120682   2.794   0.284   0.098
 6225SOL    HW220683   2.669   0.267   0.182
 6226SOL     OW20684   4.394   2.709   9.027
 6226SOL    HW120685   4.367   2.760   8.950
 6226SOL    HW220686   4.369   2.763   9.102
 6227SOL     OW20687   2.751   2.895   0.337
 6227SOL    HW120688   2.733   2.896   0.431
 6227SOL    HW220689   2.782   2.983   0.317
 6228SOL     OW20690  10.264   3.340   1.172
 6228SOL    HW120691  10.265   3.358   1.078
 6228SOL    HW220692  10.226   3.252   1.179
 6229SOL     OW20693   1.182   8.156   0.780
 6229SOL    HW120694   1.128   8.112   0.846
 6229SOL    HW220695   1.122   8.175   0.708
 6230SOL     OW20696   0.837   9.330   0.243
 6230SOL    HW120697   0.826   9.236   0.256
 6230SOL    HW220698   0.865   9.337   0.152
 6231SOL     OW20699   0.565   3.047  10.635
 6231SOL    HW120700   0.654   3.077  10.652
 6231SOL    HW220701   0.518   3.066  10.715
 6232SOL     OW20702   3.258   5.942   5.800
 6232SOL    HW120703   3.197   6.014   5.787
 6232SOL    HW220704   3.261   5.929   5.894
 6233SOL     OW20705   1.331   8.266   9.339
 6233SOL    HW120706   1.331   8.325   9.263
 6233SOL    HW220707   1.256   8.294   9.391
 6234SOL     OW20708   4.294   2.199   2.637
 6234SOL    HW120709   4.342   2.240   2.565
 6234SOL    HW220710   4.326   2.243   2.716
 6235SOL     OW20711   3.714   4.578   9.215
 6235SOL    HW120712   3.789   4.630   9.185
 6235SOL    HW220713   3.665   4.637   9.272
 6236SOL     OW20714  10.295   6.336   2.359
 6236SOL    HW120715  10.370   6.340   2.418
 6236SOL    HW220716  10.232   6.398   2.395
 6237SOL     OW20717   0.672   6.199   7.670
 6237SOL    HW120718   0.701   6.121   7.623
 6237SOL    HW220719   0.737   6.266   7.647
 6238SOL     OW20720   8.239   1.842   8.179
 6238SOL    HW120721   8.170   1.789   8.218
 6238SOL    HW220722   8.206   1.931   8.181
 6239SOL     OW20723   4.315   7.365   1.127
 6239SOL    HW120724   4.284   7.452   1.152
 6239SOL    HW220725   4.389   7.382   1.068
 6240SOL     OW20726   4.476   4.954   1.585
 6240SOL    HW120727   4.414   4.911   1.644
 6240SOL    HW220728   4.561   4.940   1.626
 6241SOL     OW20729  10.482   6.655   9.840
 6241SOL    HW120730  10.526   6.664   9.924
 6241SOL    HW220731  10.393   6.685   9.856
 6242SOL     OW20732   4.591   7.173   8.994
 6242SOL    HW120733   4.645   7.217   8.928
 6242SOL    HW220734   4.641   7.182   9.075
 6243SOL     OW20735   5.484   6.718  10.961
 6243SOL    HW120736   5.525   6.681  11.039
 6243SOL    HW220737   5.558   6.744  10.905
 6244SOL     OW20738  10.964   7.926   5.981
 6244SOL    HW120739  10.941   7.984   5.908
 6244SOL    HW220740  11.030   7.974   6.031
 6245SOL     OW20741   9.372   3.857   1.206
 6245SOL    HW120742   9.344   3.911   1.279
 6245SOL    HW220743   9.461   3.829   1.229
 6246SOL     OW20744   3.465  10.927   9.240
 6246SOL    HW120745   3.526  10.855   9.257
 6246SOL    HW220746   3.382  10.884   9.222
 6247SOL     OW20747   5.587   7.109   9.887
 6247SOL    HW120748   5.623   7.197   9.883
 6247SOL    HW220749   5.609   7.078   9.975
 6248SOL     OW20750   0.114   9.778   1.072
 6248SOL    HW120751   0.027   9.744   1.095
 6248SOL    HW220752   0.129   9.849   1.133
 6249SOL     OW20753   9.624   7.761  10.215
 6249SOL    HW120754   9.532   7.735  10.212
 6249SOL    HW220755   9.640   7.802  10.130
 6250SOL     OW20756   0.627   4.600   3.700
 6250SOL    HW120757   0.675   4.565   3.775
 6250SOL    HW220758   0.636   4.533   3.632
 6251SOL     OW20759  10.232   1.366   1.876
 6251SOL    HW120760  10.292   1.292   1.865
 6251SOL    HW220761  10.242   1.392   1.967
 6252SOL     OW20762   6.647   1.076   3.873
 6252SOL    HW120763   6.658   1.021   3.950
 6252SOL    HW220764   6.558   1.058   3.844
 6253SOL     OW20765   8.786   6.896   0.103
 6253SOL    HW120766   8.778   6.954   0.179
 6253SOL    HW220767   8.863   6.842   0.122
 6254SOL     OW20768   5.763   9.513   9.243
 6254SOL    HW120769   5.772   9.569   9.319
 6254SOL    HW220770   5.696   9.555   9.189
 6255SOL     OW20771   1.934   8.007   8.725
 6255SOL    HW120772   1.932   8.039   8.635
 6255SOL    HW220773   1.994   8.066   8.770
 6256SOL     OW20774   8.664   6.166   5.271
 6256SOL    HW120775   8.703   6.091   5.316
 6256SOL    HW220776   8.572   6.142   5.260
 6257SOL     OW20777   5.191   5.702   0.422
 6257SOL    HW120778   5.182   5.712   0.516
 6257SOL    HW220779   5.275   5.656   0.410
 6258SOL     OW20780   1.705   3.686   5.694
 6258SOL    HW120781   1.654   3.725   5.623
 6258SOL    HW220782   1.662   3.602   5.711
 6259SOL     OW20783   4.333   3.321   9.040
 6259SOL    HW120784   4.403   3.364   8.991
 6259SOL    HW220785   4.360   3.229   9.044
 6260SOL     OW20786   0.904   7.456   9.058
 6260SOL    HW120787   0.949   7.395   9.117
 6260SOL    HW220788   0.834   7.494   9.111
 6261SOL     OW20789   0.699   8.875   3.493
 6261SOL    HW120790   0.650   8.957   3.496
 6261SOL    HW220791   0.742   8.870   3.578
 6262SOL     OW20792   5.595  10.404   8.832
 6262SOL    HW120793   5.525  10.455   8.873
 6262SOL    HW220794   5.618  10.338   8.897
 6263SOL     OW20795  10.099   4.549   9.641
 6263SOL    HW120796  10.025   4.497   9.609
 6263SOL    HW220797  10.059   4.629   9.674
 6264SOL     OW20798   1.578  10.379   1.431
 6264SOL    HW120799   1.541  10.464   1.409
 6264SOL    HW220800   1.569  10.328   1.350
 6265SOL     OW20801   4.816   7.643   0.901
 6265SOL    HW120802   4.753   7.713   0.917
 6265SOL    HW220803   4.894   7.688   0.868
 6266SOL     OW20804   2.940   6.919  10.540
 6266SOL    HW120805   2.882   6.935  10.465
 6266SOL    HW220806   3.019   6.969  10.520
 6267SOL     OW20807   5.794  10.226   9.508
 6267SOL    HW120808   5.861  10.169   9.545
 6267SOL    HW220809   5.807  10.219   9.413
 6268SOL     OW20810   7.296   9.573   2.244
 6268SOL    HW120811   7.330   9.521   2.170
 6268SOL    HW220812   7.244   9.642   2.203
 6269SOL     OW20813   0.675   8.414  10.137
 6269SOL    HW120814   0.678   8.509  10.135
 6269SOL    HW220815   0.731   8.386  10.064
 6270SOL     OW20816   7.062   6.933   0.281
 6270SOL    HW120817   7.102   6.989   0.215
 6270SOL    HW220818   7.135   6.883   0.317
 6271SOL     OW20819   2.596   5.749   1.038
 6271SOL    HW120820   2.542   5.708   1.105
 6271SOL    HW220821   2.661   5.800   1.086
 6272SOL     OW20822   8.787   7.105   6.546
 6272SOL    HW120823   8.873   7.072   6.571
 6272SOL    HW220824   8.796   7.127   6.453
 6273SOL     OW20825   2.299   7.670   9.350
 6273SOL    HW120826   2.364   7.738   9.365
 6273SOL    HW220827   2.350   7.595   9.317
 6274SOL     OW20828   3.268   2.138  10.608
 6274SOL    HW120829   3.306   2.152  10.521
 6274SOL    HW220830   3.208   2.064  10.595
 6275SOL     OW20831   9.920   2.226   9.004
 6275SOL    HW120832   9.844   2.272   9.039
 6275SOL    HW220833   9.990   2.291   9.005
 6276SOL     OW20834   3.190   4.251   9.010
 6276SOL    HW120835   3.251   4.182   8.982
 6276SOL    HW220836   3.163   4.293   8.928
 6277SOL     OW20837   2.828   8.884  10.309
 6277SOL    HW120838   2.851   8.791  10.319
 6277SOL    HW220839   2.733   8.886  10.321
 6278SOL     OW20840   6.816   6.397   6.876
 6278SOL    HW120841   6.874   6.328   6.909
 6278SOL    HW220842   6.764   6.354   6.808
 6279SOL     OW20843  10.158  10.392   9.806
 6279SOL    HW120844  10.065  10.413   9.807
 6279SOL    HW220845  10.170  10.341   9.726
 6280SOL     OW20846   0.820   9.909   9.944
 6280SOL    HW120847   0.745   9.949   9.987
 6280SOL    HW220848   0.784   9.837   9.893
 6281SOL     OW20849  10.650   8.072   2.051
 6281SOL    HW120850  10.564   8.111   2.067
 6281SOL    HW220851  10.663   8.011   2.123
 6282SOL     OW20852   7.415   7.664  10.549
 6282SOL    HW120853   7.407   7.569  10.558
 6282SOL    HW220854   7.400   7.681  10.456
 6283SOL     OW20855   9.166   6.929   9.923
 6283SOL    HW120856   9.114   6.850   9.938
 6283SOL    HW220857   9.254   6.906   9.953
 6284SOL     OW20858   3.999   5.860   8.269
 6284SOL    HW120859   3.947   5.878   8.191
 6284SOL    HW220860   3.936   5.862   8.341
 6285SOL     OW20861   0.555  10.160   5.673
 6285SOL    HW120862   0.557  10.122   5.585
 6285SOL    HW220863   0.631  10.122   5.717
 6286SOL     OW20864   1.076   2.372   7.925
 6286SOL    HW120865   1.154   2.362   7.980
 6286SOL    HW220866   1.110   2.400   7.840
 6287SOL     OW20867   4.520   6.822   7.520
 6287SOL    HW120868   4.540   6.841   7.428
 6287SOL    HW220869   4.436   6.776   7.517
 6288SOL     OW20870   0.228   5.901   0.728
 6288SOL    HW120871   0.244   5.853   0.809
 6288SOL    HW220872   0.286   5.859   0.664
 6289SOL     OW20873   4.723  11.076   7.055
 6289SOL    HW120874   4.672  11.000   7.027
 6289SOL    HW220875   4.734  11.128   6.975
 6290SOL     OW20876   9.631   2.657   6.923
 6290SOL    HW120877   9.537   2.666   6.941
 6290SOL    HW220878   9.652   2.567   6.949
 6291SOL     OW20879   6.009   6.167   6.200
 6291SOL    HW120880   6.063   6.195   6.126
 6291SOL    HW220881   6.027   6.073   6.208
 6292SOL     OW20882   9.534   1.171  10.789
 6292SOL    HW120883   9.471   1.156  10.718
 6292SOL    HW220884   9.485   1.219  10.855
 6293SOL     OW20885   4.344   2.221   6.431
 6293SOL    HW120886   4.409   2.252   6.368
 6293SOL    HW220887   4.390   2.222   6.515
 6294SOL     OW20888   2.019   3.720   9.612
 6294SOL    HW120889   2.000   3.773   9.534
 6294SOL    HW220890   1.997   3.630   9.586
 6295SOL     OW20891   7.345   0.030   3.448
 6295SOL    HW120892   7.440   0.034   3.463
 6295SOL    HW220893   7.306   0.063   3.529
 6296SOL     OW20894   2.875   0.101  10.659
 6296SOL    HW120895   2.970   0.094  10.651
 6296SOL    HW220896   2.860   0.130  10.749
 6297SOL     OW20897   4.453   5.440  10.635
 6297SOL    HW120898   4.530   5.453  10.690
 6297SOL    HW220899   4.471   5.358  10.587
 6298SOL     OW20900   4.564   9.219   5.606
 6298SOL    HW120901   4.641   9.166   5.628
 6298SOL    HW220902   4.491   9.175   5.650
 6299SOL     OW20903  10.575   3.985   2.865
 6299SOL    HW120904  10.614   4.072   2.875
 6299SOL    HW220905  10.505   3.997   2.801
 6300SOL     OW20906   1.856   5.566   7.782
 6300SOL    HW120907   1.860   5.475   7.812
 6300SOL    HW220908   1.870   5.618   7.861
 6301SOL     OW20909   0.059   8.395   9.794
 6301SOL    HW120910   0.102   8.315   9.762
 6301SOL    HW220911  -0.034   8.372   9.797
 6302SOL     OW20912   3.171   9.500   3.445
 6302SOL    HW120913   3.171   9.410   3.479
 6302SOL    HW220914   3.081   9.530   3.457
 6303SOL     OW20915   7.859   5.230   1.575
 6303SOL    HW120916   7.810   5.208   1.495
 6303SOL    HW220917   7.945   5.188   1.562
 6304SOL     OW20918   3.224   3.192   2.924
 6304SOL    HW120919   3.286   3.166   2.992
 6304SOL    HW220920   3.192   3.109   2.889
 6305SOL     OW20921   8.273   5.083   4.114
 6305SOL    HW120922   8.232   5.136   4.181
 6305SOL    HW220923   8.365   5.108   4.115
 6306SOL     OW20924   4.582   8.006   5.287
 6306SOL    HW120925   4.663   8.052   5.309
 6306SOL    HW220926   4.512   8.066   5.312
 6307SOL     OW20927   8.172   5.382   9.683
 6307SOL    HW120928   8.100   5.324   9.708
 6307SOL    HW220929   8.245   5.322   9.664
 6308SOL     OW20930   0.072   3.760   7.125
 6308SOL    HW120931   0.062   3.667   7.147
 6308SOL    HW220932  -0.014   3.798   7.144
 6309SOL     OW20933   2.092   3.689  10.428
 6309SOL    HW120934   2.050   3.773  10.411
 6309SOL    HW220935   2.151   3.705  10.501
 6310SOL     OW20936   1.135   5.347   7.068
 6310SOL    HW120937   1.123   5.346   6.973
 6310SOL    HW220938   1.159   5.257   7.089
 6311SOL     OW20939   0.282   5.437  10.673
 6311SOL    HW120940   0.232   5.502  10.722
 6311SOL    HW220941   0.316   5.485  10.597
 6312SOL     OW20942  10.619   9.975   1.181
 6312SOL    HW120943  10.693   9.940   1.231
 6312SOL    HW220944  10.573   9.897   1.150
 6313SOL     OW20945   2.607   0.086   4.533
 6313SOL    HW120946   2.588   0.178   4.551
 6313SOL    HW220947   2.634   0.084   4.441
 6314SOL     OW20948   3.995   5.433   8.109
 6314SOL    HW120949   3.958   5.374   8.043
 6314SOL    HW220950   3.928   5.500   8.121
 6315SOL     OW20951   9.185   3.235   1.857
 6315SOL    HW120952   9.223   3.167   1.913
 6315SOL    HW220953   9.185   3.314   1.911
 6316SOL     OW20954   6.869   8.167   6.544
 6316SOL    HW120955   6.925   8.232   6.501
 6316SOL    HW220956   6.884   8.180   6.637
 6317SOL     OW20957   7.934   0.418   8.348
 6317SOL    HW120958   7.847   0.412   8.388
 6317SOL    HW220959   7.918   0.410   8.254
 6318SOL     OW20960  10.614   8.906   9.653
 6318SOL    HW120961  10.561   8.834   9.619
 6318SOL    HW220962  10.573   8.928   9.736
 6319SOL     OW20963   6.264   9.440  10.888
 6319SOL    HW120964   6.296   9.349  10.890
 6319SOL    HW220965   6.180   9.436  10.933
 6320SOL     OW20966   4.693  10.857  10.277
 6320SOL    HW120967   4.761  10.826  10.336
 6320SOL    HW220968   4.612  10.821  10.312
 6321SOL     OW20969   1.886   9.507   8.266
 6321SOL    HW120970   1.928   9.500   8.180
 6321SOL    HW220971   1.805   9.456   8.257
 6322SOL     OW20972   2.172   5.262  10.679
 6322SOL    HW120973   2.232   5.304  10.740
 6322SOL    HW220974   2.218   5.265  10.595
 6323SOL     OW20975   7.607   3.999   2.958
 6323SOL    HW120976   7.635   3.973   2.870
 6323SOL    HW220977   7.620   3.920   3.011
 6324SOL     OW20978   1.976   7.792   3.186
 6324SOL    HW120979   1.929   7.861   3.140
 6324SOL    HW220980   1.919   7.715   3.179
 6325SOL     OW20981   4.966  10.614   0.727
 6325SOL    HW120982   5.034  10.627   0.660
 6325SOL    HW220983   4.908  10.548   0.689
 6326SOL     OW20984  10.514   1.576   0.915
 6326SOL    HW120985  10.522   1.498   0.859
 6326SOL    HW220986  10.420   1.593   0.918
 6327SOL     OW20987   4.757   4.443   0.835
 6327SOL    HW120988   4.850   4.422   0.845
 6327SOL    HW220989   4.746   4.456   0.741
 6328SOL     OW20990   0.314   9.121   9.691
 6328SOL    HW120991   0.343   9.034   9.720
 6328SOL    HW220992   0.376   9.182   9.730
 6329SOL     OW20993   7.643   5.030   7.344
 6329SOL    HW120994   7.698   5.092   7.391
 6329SOL    HW220995   7.567   5.081   7.315
 6330SOL     OW20996   8.182   8.481  10.810
 6330SOL    HW120997   8.205   8.394  10.844
 6330SOL    HW220998   8.244   8.540  10.852
 6331SOL     OW20999   5.478   8.871   7.650
 6331SOL    HW121000   5.464   8.777   7.639
 6331SOL    HW221001   5.570   8.879   7.676
 6332SOL     OW21002   7.145   7.927   1.255
 6332SOL    HW121003   7.094   7.984   1.197
 6332SOL    HW221004   7.236   7.948   1.235
 6333SOL     OW21005   6.478   9.578  10.999
 6333SOL    HW121006   6.519   9.498  11.033
 6333SOL    HW221007   6.398   9.547  10.956
 6334SOL     OW21008   1.689   4.506   2.235
 6334SOL    HW121009   1.615   4.486   2.178
 6334SOL    HW221010   1.766   4.484   2.182
 6335SOL     OW21011   4.735  10.445   7.820
 6335SOL    HW121012   4.779  10.452   7.735
 6335SOL    HW221013   4.774  10.515   7.873
 6336SOL     OW21014   2.209  10.505   9.708
 6336SOL    HW121015   2.145  10.575   9.697
 6336SOL    HW221016   2.190  10.468   9.794
 6337SOL     OW21017   2.527   9.679  10.805
 6337SOL    HW121018   2.521   9.585  10.823
 6337SOL    HW221019   2.482   9.720  10.878
 6338SOL     OW21020   1.289   2.074   0.116
 6338SOL    HW121021   1.256   2.136   0.182
 6338SOL    HW221022   1.339   2.009   0.167
 6339SOL     OW21023  11.016   2.871   5.831
 6339SOL    HW121024  11.063   2.859   5.748
 6339SOL    HW221025  10.943   2.809   5.826
 6340SOL     OW21026  10.409   7.749   3.223
 6340SOL    HW121027  10.355   7.685   3.270
 6340SOL    HW221028  10.349   7.788   3.159
 6341SOL     OW21029  10.479   6.841   0.927
 6341SOL    HW121030  10.509   6.900   0.858
 6341SOL    HW221031  10.490   6.890   1.008
 6342SOL     OW21032   0.545   8.553   3.038
 6342SOL    HW121033   0.613   8.593   3.092
 6342SOL    HW221034   0.464   8.593   3.068
 6343SOL     OW21035   2.019  10.452   0.522
 6343SOL    HW121036   1.980  10.416   0.601
 6343SOL    HW221037   2.092  10.506   0.553
 6344SOL     OW21038  10.953   2.638   5.574
 6344SOL    HW121039  10.926   2.645   5.665
 6344SOL    HW221040  10.901   2.565   5.539
 6345SOL     OW21041   1.909   3.852   1.400
 6345SOL    HW121042   1.980   3.788   1.399
 6345SOL    HW221043   1.852   3.825   1.328
 6346SOL     OW21044  -0.001   8.473   4.944
 6346SOL    HW121045   0.075   8.500   4.893
 6346SOL    HW221046   0.018   8.383   4.970
 6347SOL     OW21047   1.731   0.401  10.779
 6347SOL    HW121048   1.730   0.339  10.852
 6347SOL    HW221049   1.758   0.484  10.818
 6348SOL     OW21050   3.171   4.798   8.557
 6348SOL    HW121051   3.108   4.739   8.516
 6348SOL    HW221052   3.138   4.885   8.538
 6349SOL     OW21053   9.751   1.372  10.278
 6349SOL    HW121054   9.729   1.308  10.346
 6349SOL    HW221055   9.730   1.327  10.196
 6350SOL     OW21056   0.257   4.627   3.521
 6350SOL    HW121057   0.273   4.660   3.609
 6350SOL    HW221058   0.325   4.561   3.507
 6351SOL     OW21059   8.998   9.906   2.368
 6351SOL    HW121060   9.085   9.871   2.389
 6351SOL    HW221061   8.943   9.828   2.356
 6352SOL     OW21062   8.580   6.296   2.243
 6352SOL    HW121063   8.536   6.312   2.159
 6352SOL    HW221064   8.652   6.237   2.221
 6353SOL     OW21065   1.441   0.630   9.572
 6353SOL    HW121066   1.437   0.588   9.658
 6353SOL    HW221067   1.464   0.721   9.591
 6354SOL     OW21068   2.749   4.352   5.665
 6354SOL    HW121069   2.728   4.329   5.574
 6354SOL    HW221070   2.718   4.441   5.675
 6355SOL     OW21071   5.251  10.057   1.326
 6355SOL    HW121072   5.298  10.105   1.394
 6355SOL    HW221073   5.219  10.125   1.266
 6356SOL     OW21074  10.978   8.498   6.603
 6356SOL    HW121075  10.898   8.543   6.627
 6356SOL    HW221076  11.041   8.522   6.671
 6357SOL     OW21077   1.179   8.002   5.076
 6357SOL    HW121078   1.268   7.997   5.040
 6357SOL    HW221079   1.122   7.996   4.999
 6358SOL     OW21080   5.548   1.187   7.394
 6358SOL    HW121081   5.609   1.153   7.328
 6358SOL    HW221082   5.478   1.227   7.343
 6359SOL     OW21083   4.059   1.607   3.289
 6359SOL    HW121084   4.068   1.672   3.220
 6359SOL    HW221085   4.082   1.653   3.369
 6360SOL     OW21086   2.907  10.882   0.771
 6360SOL    HW121087   2.827  10.896   0.721
 6360SOL    HW221088   2.906  10.789   0.793
 6361SOL     OW21089   9.375   5.347   4.292
 6361SOL    HW121090   9.280   5.340   4.301
 6361SOL    HW221091   9.397   5.287   4.220
 6362SOL     OW21092   0.679   6.367   2.165
 6362SOL    HW121093   0.694   6.384   2.072
 6362SOL    HW221094   0.763   6.334   2.197
 6363SOL     OW21095   0.458   2.130   8.860
 6363SOL    HW121096   0.481   2.106   8.950
 6363SOL    HW221097   0.368   2.100   8.849
 6364SOL     OW21098   2.765   5.889   6.875
 6364SOL    HW121099   2.725   5.958   6.822
 6364SOL    HW221100   2.821   5.935   6.937
 6365SOL     OW21101   4.964   0.214   7.372
 6365SOL    HW121102   5.006   0.291   7.409
 6365SOL    HW221103   4.874   0.217   7.405
 6366SOL     OW21104   0.559   0.423   6.578
 6366SOL    HW121105   0.592   0.497   6.527
 6366SOL    HW221106   0.570   0.450   6.669
 6367SOL     OW21107   2.582   3.381   4.401
 6367SOL    HW121108   2.649   3.445   4.424
 6367SOL    HW221109   2.525   3.376   4.477
 6368SOL     OW21110   9.594   9.498   8.742
 6368SOL    HW121111   9.583   9.476   8.649
 6368SOL    HW221112   9.683   9.532   8.748
 6369SOL     OW21113   2.928   3.148   8.888
 6369SOL    HW121114   2.838   3.174   8.868
 6369SOL    HW221115   2.981   3.225   8.867
 6370SOL     OW21116  10.967   6.396   0.067
 6370SOL    HW121117  10.962   6.376  -0.026
 6370SOL    HW221118  11.047   6.448   0.076
 6371SOL     OW21119   9.764   7.057   2.257
 6371SOL    HW121120   9.810   7.064   2.340
 6371SOL    HW221121   9.815   7.111   2.196
 6372SOL     OW21122   3.430   3.822   8.226
 6372SOL    HW121123   3.355   3.881   8.225
 6372SOL    HW221124   3.392   3.735   8.237
 6373SOL     OW21125   0.837   6.488   8.239
 6373SOL    HW121126   0.917   6.531   8.208
 6373SOL    HW221127   0.810   6.539   8.315
 6374SOL     OW21128   0.800   9.548   0.405
 6374SOL    HW121129   0.825   9.471   0.353
 6374SOL    HW221130   0.791   9.515   0.494
 6375SOL     OW21131   3.600   2.263   2.540
 6375SOL    HW121132   3.643   2.329   2.594
 6375SOL    HW221133   3.653   2.259   2.460
 6376SOL     OW21134   8.317   9.736   6.765
 6376SOL    HW121135   8.297   9.822   6.728
 6376SOL    HW221136   8.395   9.750   6.818
 6377SOL     OW21137   2.687   5.495   2.306
 6377SOL    HW121138   2.638   5.495   2.388
 6377SOL    HW221139   2.656   5.573   2.260
 6378SOL     OW21140   2.433   8.007   9.642
 6378SOL    HW121141   2.517   7.981   9.603
 6378SOL    HW221142   2.369   7.948   9.602
 6379SOL     OW21143   2.398  10.787   5.256
 6379SOL    HW121144   2.443  10.800   5.339
 6379SOL    HW221145   2.355  10.871   5.239
 6380SOL     OW21146   8.669   2.003   4.887
 6380SOL    HW121147   8.639   1.980   4.799
 6380SOL    HW221148   8.754   1.959   4.895
 6381SOL     OW21149   6.475   0.230   0.367
 6381SOL    HW121150   6.497   0.322   0.378
 6381SOL    HW221151   6.553   0.183   0.398
 6382SOL     OW21152   9.888   0.664   5.504
 6382SOL    HW121153   9.804   0.631   5.537
 6382SOL    HW221154   9.908   0.608   5.429
 6383SOL     OW21155  11.068   6.165   6.480
 6383SOL    HW121156  11.054   6.241   6.424
 6383SOL    HW221157  11.136   6.114   6.435
 6384SOL     OW21158   0.889   7.581  10.108
 6384SOL    HW121159   0.952   7.599  10.038
 6384SOL    HW221160   0.927   7.623  10.185
 6385SOL     OW21161   2.674   0.483   1.933
 6385SOL    HW121162   2.742   0.544   1.962
 6385SOL    HW221163   2.681   0.483   1.837
 6386SOL     OW21164   0.825   1.740   6.159
 6386SOL    HW121165   0.825   1.647   6.182
 6386SOL    HW221166   0.734   1.767   6.170
 6387SOL     OW21167   2.069   4.591   8.492
 6387SOL    HW121168   2.149   4.540   8.507
 6387SOL    HW221169   2.068   4.656   8.562
 6388SOL     OW21170   8.427   8.726   7.826
 6388SOL    HW121171   8.519   8.701   7.824
 6388SOL    HW221172   8.413   8.761   7.914
 6389SOL     OW21173  10.067   2.811   0.874
 6389SOL    HW121174  10.002   2.781   0.810
 6389SOL    HW221175  10.137   2.746   0.869
 6390SOL     OW21176  10.990  10.911   1.939
 6390SOL    HW121177  10.896  10.909   1.954
 6390SOL    HW221178  11.020  10.991   1.982
 6391SOL     OW21179   5.985   7.347   7.152
 6391SOL    HW121180   5.988   7.435   7.189
 6391SOL    HW221181   6.051   7.348   7.083
 6392SOL     OW21182   3.082   4.191   5.077
 6392SOL    HW121183   3.078   4.191   5.172
 6392SOL    HW221184   3.029   4.266   5.051
 6393SOL     OW21185   2.507  10.834  10.994
 6393SOL    HW121186   2.542  10.865  10.910
 6393SOL    HW221187   2.550  10.749  11.007
 6394SOL     OW21188   2.661  10.671   8.896
 6394SOL    HW121189   2.598  10.723   8.846
 6394SOL    HW221190   2.719  10.736   8.935
 6395SOL     OW21191   1.480   9.031   8.119
 6395SOL    HW121192   1.487   9.074   8.204
 6395SOL    HW221193   1.547   9.072   8.065
 6396SOL     OW21194   6.338   9.876   4.228
 6396SOL    HW121195   6.400   9.949   4.232
 6396SOL    HW221196   6.393   9.797   4.231
 6397SOL     OW21197   8.956  10.646   1.958
 6397SOL    HW121198   8.933  10.735   1.930
 6397SOL    HW221199   9.025  10.619   1.897
 6398SOL     OW21200  10.816  10.352   1.883
 6398SOL    HW121201  10.878  10.413   1.923
 6398SOL    HW221202  10.774  10.403   1.813
 6399SOL     OW21203   5.013   5.887   9.375
 6399SOL    HW121204   4.949   5.817   9.390
 6399SOL    HW221205   4.968   5.948   9.316
 6400SOL     OW21206   3.454   8.008   3.778
 6400SOL    HW121207   3.520   8.064   3.737
 6400SOL    HW221208   3.505   7.946   3.831
 6401SOL     OW21209   0.753   0.804   1.664
 6401SOL    HW121210   0.793   0.888   1.684
 6401SOL    HW221211   0.664   0.810   1.699
 6402SOL     OW21212   8.825   3.476  11.066
 6402SOL    HW121213   8.860   3.563  11.082
 6402SOL    HW221214   8.867   3.448  10.984
 6403SOL     OW21215   2.811   9.707   6.355
 6403SOL    HW121216   2.825   9.801   6.362
 6403SOL    HW221217   2.787   9.693   6.263
 6404SOL     OW21218   4.870   9.771   1.223
 6404SOL    HW121219   4.944   9.776   1.163
 6404SOL    HW221220   4.894   9.702   1.284
 6405SOL     OW21221   8.195   1.445   8.534
 6405SOL    HW121222   8.119   1.391   8.557
 6405SOL    HW221223   8.186   1.460   8.440
 6406SOL     OW21224   7.700   2.433  10.838
 6406SOL    HW121225   7.662   2.351  10.806
 6406SOL    HW221226   7.625   2.483  10.870
 6407SOL     OW21227  10.464   6.990   1.850
 6407SOL    HW121228  10.443   6.940   1.929
 6407SOL    HW221229  10.511   7.067   1.881
 6408SOL     OW21230   5.608   8.394   2.252
 6408SOL    HW121231   5.666   8.468   2.234
 6408SOL    HW221232   5.630   8.367   2.341
 6409SOL     OW21233   9.109   2.856  10.801
 6409SOL    HW121234   9.178   2.898  10.749
 6409SOL    HW221235   9.048   2.926  10.821
 6410SOL     OW21236  10.875   1.136   6.723
 6410SOL    HW121237  10.803   1.092   6.678
 6410SOL    HW221238  10.833   1.203   6.777
 6411SOL     OW21239   4.220   4.562   3.976
 6411SOL    HW121240   4.314   4.574   3.964
 6411SOL    HW221241   4.181   4.644   3.945
 6412SOL     OW21242   4.169   8.699   7.992
 6412SOL    HW121243   4.151   8.792   7.977
 6412SOL    HW221244   4.218   8.696   8.074
 6413SOL     OW21245   3.071   3.539   2.492
 6413SOL    HW121246   3.158   3.568   2.520
 6413SOL    HW221247   3.016   3.617   2.500
 6414SOL     OW21248   5.155   5.160  11.051
 6414SOL    HW121249   5.150   5.226  10.982
 6414SOL    HW221250   5.238   5.114  11.035
 6415SOL     OW21251   1.610   2.986   7.327
 6415SOL    HW121252   1.656   2.988   7.243
 6415SOL    HW221253   1.541   2.921   7.315
 6416SOL     OW21254   5.333   6.668   8.936
 6416SOL    HW121255   5.287   6.612   8.873
 6416SOL    HW221256   5.417   6.623   8.951
 6417SOL     OW21257   0.609   1.761   2.285
 6417SOL    HW121258   0.702   1.771   2.264
 6417SOL    HW221259   0.574   1.850   2.282
 6418SOL     OW21260   3.760  10.499   8.906
 6418SOL    HW121261   3.840  10.478   8.858
 6418SOL    HW221262   3.723  10.574   8.859
 6419SOL     OW21263  10.676   0.681   1.658
 6419SOL    HW121264  10.725   0.727   1.726
 6419SOL    HW221265  10.737   0.677   1.584
 6420SOL     OW21266   1.374   9.547   4.735
 6420SOL    HW121267   1.342   9.459   4.713
 6420SOL    HW221268   1.335   9.566   4.820
 6421SOL     OW21269  10.321   9.863   0.261
 6421SOL    HW121270  10.309   9.957   0.250
 6421SOL    HW221271  10.326   9.829   0.171
 6422SOL     OW21272   5.627   9.662   7.287
 6422SOL    HW121273   5.553   9.610   7.319
 6422SOL    HW221274   5.643   9.629   7.198
 6423SOL     OW21275   8.927   7.666   6.662
 6423SOL    HW121276   8.876   7.743   6.687
 6423SOL    HW221277   8.985   7.650   6.736
 6424SOL     OW21278   3.481   0.806   3.127
 6424SOL    HW121279   3.488   0.837   3.037
 6424SOL    HW221280   3.494   0.884   3.180
 6425SOL     OW21281   3.142  11.104   2.084
 6425SOL    HW121282   3.112  11.047   2.013
 6425SOL    HW221283   3.200  11.049   2.137
 6426SOL     OW21284   0.962   3.377  10.828
 6426SOL    HW121285   0.997   3.416  10.748
 6426SOL    HW221286   0.929   3.451  10.878
 6427SOL     OW21287   1.255   2.677   2.270
 6427SOL    HW121288   1.236   2.715   2.184
 6427SOL    HW221289   1.331   2.726   2.301
 6428SOL     OW21290   0.157  11.048   3.950
 6428SOL    HW121291   0.173  10.991   3.875
 6428SOL    HW221292   0.151  10.989   4.025
 6429SOL     OW21293   2.202   8.904   1.851
 6429SOL    HW121294   2.262   8.969   1.816
 6429SOL    HW221295   2.249   8.865   1.924
 6430SOL     OW21296   5.610  10.113   1.030
 6430SOL    HW121297   5.555  10.109   0.952
 6430SOL    HW221298   5.606  10.024   1.066
 6431SOL     OW21299   8.647   9.466   8.894
 6431SOL    HW121300   8.576   9.529   8.884
 6431SOL    HW221301   8.638   9.407   8.819
 6432SOL     OW21302   3.778   1.120   0.688
 6432SOL    HW121303   3.690   1.097   0.719
 6432SOL    HW221304   3.777   1.215   0.682
 6433SOL     OW21305   9.143   2.592   6.893
 6433SOL    HW121306   9.094   2.587   6.810
 6433SOL    HW221307   9.078   2.621   6.957
 6434SOL     OW21308   2.943   8.389   7.989
 6434SOL    HW121309   2.937   8.402   8.083
 6434SOL    HW221310   3.036   8.375   7.973
 6435SOL     OW21311   9.682   0.458   1.956
 6435SOL    HW121312   9.710   0.525   2.017
 6435SOL    HW221313   9.613   0.499   1.904
 6436SOL     OW21314   4.060   9.970   3.659
 6436SOL    HW121315   4.088  10.027   3.730
 6436SOL    HW221316   4.072  10.022   3.579
 6437SOL     OW21317   8.263   0.283   7.857
 6437SOL    HW121318   8.199   0.217   7.884
 6437SOL    HW221319   8.295   0.252   7.772
 6438SOL     OW21320   2.738   3.890   8.690
 6438SOL    HW121321   2.723   3.981   8.716
 6438SOL    HW221322   2.761   3.845   8.771
 6439SOL     OW21323   2.412   3.340   9.142
 6439SOL    HW121324   2.395   3.246   9.155
 6439SOL    HW221325   2.500   3.353   9.176
 6440SOL     OW21326   6.298   8.655   1.307
 6440SOL    HW121327   6.214   8.644   1.351
 6440SOL    HW221328   6.281   8.632   1.215
 6441SOL     OW21329   0.702  10.159  10.848
 6441SOL    HW121330   0.721  10.208  10.927
 6441SOL    HW221331   0.782  10.167  10.795
 6442SOL     OW21332  10.018   2.666   1.221
 6442SOL    HW121333  10.035   2.731   1.153
 6442SOL    HW221334  10.095   2.609   1.219
 6443SOL     OW21335  10.794   2.176   9.549
 6443SOL    HW121336  10.706   2.208   9.566
 6443SOL    HW221337  10.848   2.255   9.542
 6444SOL     OW21338  10.636   9.755   2.297
 6444SOL    HW121339  10.590   9.681   2.336
 6444SOL    HW221340  10.673   9.803   2.371
 6445SOL     OW21341   2.805   6.881   1.027
 6445SOL    HW121342   2.723   6.920   1.057
 6445SOL    HW221343   2.791   6.787   1.037
 6446SOL     OW21344   4.659   1.201  10.745
 6446SOL    HW121345   4.588   1.168  10.689
 6446SOL    HW221346   4.739   1.178  10.697
 6447SOL     OW21347   1.957   3.964   5.005
 6447SOL    HW121348   1.951   3.949   4.910
 6447SOL    HW221349   2.017   4.038   5.013
 6448SOL     OW21350   3.678   6.018   0.681
 6448SOL    HW121351   3.704   6.093   0.734
 6448SOL    HW221352   3.716   6.035   0.595
 6449SOL     OW21353   6.647   8.216   1.510
 6449SOL    HW121354   6.588   8.272   1.460
 6449SOL    HW221355   6.598   8.135   1.523
 6450SOL     OW21356   2.174   4.568   3.906
 6450SOL    HW121357   2.210   4.479   3.905
 6450SOL    HW221358   2.247   4.623   3.933
 6451SOL     OW21359   3.707   5.504   3.520
 6451SOL    HW121360   3.667   5.421   3.545
 6451SOL    HW221361   3.647   5.571   3.552
 6452SOL     OW21362   0.807   4.530   6.273
 6452SOL    HW121363   0.806   4.573   6.358
 6452SOL    HW221364   0.773   4.595   6.212
 6453SOL     OW21365   6.542  10.092   3.174
 6453SOL    HW121366   6.464  10.145   3.162
 6453SOL    HW221367   6.574  10.076   3.085
 6454SOL     OW21368   4.315   8.803   9.898
 6454SOL    HW121369   4.402   8.766   9.879
 6454SOL    HW221370   4.318   8.891   9.861
 6455SOL     OW21371   9.208   9.169   9.682
 6455SOL    HW121372   9.141   9.192   9.745
 6455SOL    HW221373   9.260   9.101   9.725
 6456SOL     OW21374   0.641   1.809   8.800
 6456SOL    HW121375   0.582   1.853   8.739
 6456SOL    HW221376   0.666   1.728   8.755
 6457SOL     OW21377   6.538   9.905   7.218
 6457SOL    HW121378   6.474   9.854   7.268
 6457SOL    HW221379   6.613   9.846   7.209
 6458SOL     OW21380   2.058   0.423   1.566
 6458SOL    HW121381   1.984   0.432   1.626
 6458SOL    HW221382   2.095   0.511   1.559
 6459SOL     OW21383  10.023   8.910   3.189
 6459SOL    HW121384  10.041   8.915   3.283
 6459SOL    HW221385  10.021   9.001   3.159
 6460SOL     OW21386   1.984   9.458   3.016
 6460SOL    HW121387   1.970   9.406   2.936
 6460SOL    HW221388   2.054   9.519   2.992
 6461SOL     OW21389   5.202   1.000   4.707
 6461SOL    HW121390   5.208   1.020   4.613
 6461SOL    HW221391   5.293   1.001   4.737
 6462SOL     OW21392   9.321   4.446   6.051
 6462SOL    HW121393   9.252   4.486   5.998
 6462SOL    HW221394   9.274   4.388   6.111
 6463SOL     OW21395   7.718   3.021   2.589
 6463SOL    HW121396   7.760   3.065   2.515
 6463SOL    HW221397   7.773   3.043   2.664
 6464SOL     OW21398  11.032   4.099   3.423
 6464SOL    HW121399  11.043   4.176   3.478
 6464SOL    HW221400  11.097   4.110   3.353
 6465SOL     OW21401   4.915   0.843   1.725
 6465SOL    HW121402   4.956   0.909   1.669
 6465SOL    HW221403   4.989   0.794   1.761
 6466SOL     OW21404   3.200  10.860   3.452
 6466SOL    HW121405   3.170  10.902   3.532
 6466SOL    HW221406   3.178  10.923   3.383
 6467SOL     OW21407   2.637  10.734   7.155
 6467SOL    HW121408   2.661  10.747   7.063
 6467SOL    HW221409   2.703  10.673   7.188
 6468SOL     OW21410   1.546   9.823   2.439
 6468SOL    HW121411   1.472   9.795   2.493
 6468SOL    HW221412   1.536   9.773   2.357
 6469SOL     OW21413   4.481   9.989   2.573
 6469SOL    HW121414   4.537   9.943   2.510
 6469SOL    HW221415   4.421  10.039   2.518
 6470SOL     OW21416   1.142  10.161   0.450
 6470SOL    HW121417   1.163  10.251   0.428
 6470SOL    HW221418   1.047  10.161   0.464
 6471SOL     OW21419   0.246   7.965   6.871
 6471SOL    HW121420   0.189   8.010   6.809
 6471SOL    HW221421   0.266   8.031   6.937
 6472SOL     OW21422   2.315   1.065   1.318
 6472SOL    HW121423   2.268   1.141   1.352
 6472SOL    HW221424   2.246   1.008   1.284
 6473SOL     OW21425   8.178   5.090   0.046
 6473SOL    HW121426   8.083   5.098   0.043
 6473SOL    HW221427   8.207   5.164   0.099
 6474SOL     OW21428   4.922   3.283   3.602
 6474SOL    HW121429   4.848   3.322   3.647
 6474SOL    HW221430   4.962   3.224   3.666
 6475SOL     OW21431   3.105   0.611   7.045
 6475SOL    HW121432   3.076   0.618   7.136
 6475SOL    HW221433   3.143   0.696   7.025
 6476SOL     OW21434  10.512   8.923  11.082
 6476SOL    HW121435  10.552   8.933  10.995
 6476SOL    HW221436  10.510   9.011  11.118
 6477SOL     OW21437   3.644   3.376   1.531
 6477SOL    HW121438   3.707   3.423   1.586
 6477SOL    HW221439   3.697   3.308   1.487
 6478SOL     OW21440   9.631   5.413   3.818
 6478SOL    HW121441   9.549   5.449   3.852
 6478SOL    HW221442   9.610   5.322   3.797
 6479SOL     OW21443   1.277   6.969   3.290
 6479SOL    HW121444   1.276   7.055   3.332
 6479SOL    HW221445   1.298   6.987   3.198
 6480SOL     OW21446   7.845   3.174   2.373
 6480SOL    HW121447   7.936   3.165   2.346
 6480SOL    HW221448   7.807   3.234   2.309
 6481SOL     OW21449   2.942   7.548   1.701
 6481SOL    HW121450   3.024   7.591   1.677
 6481SOL    HW221451   2.880   7.619   1.714
 6482SOL     OW21452   0.956   5.400   8.665
 6482SOL    HW121453   0.992   5.329   8.612
 6482SOL    HW221454   0.882   5.432   8.614
 6483SOL     OW21455   9.535   9.744   9.344
 6483SOL    HW121456   9.565   9.760   9.254
 6483SOL    HW221457   9.468   9.810   9.359
 6484SOL     OW21458   2.389   5.290   2.598
 6484SOL    HW121459   2.412   5.211   2.647
 6484SOL    HW221460   2.299   5.275   2.569
 6485SOL     OW21461  10.913   5.856   0.505
 6485SOL    HW121462  10.895   5.930   0.563
 6485SOL    HW221463  10.941   5.786   0.564
 6486SOL     OW21464   1.343   6.089   4.569
 6486SOL    HW121465   1.269   6.031   4.550
 6486SOL    HW221466   1.314   6.141   4.643
 6487SOL     OW21467   0.029   8.861   9.783
 6487SOL    HW121468  -0.061   8.884   9.761
 6487SOL    HW221469   0.080   8.939   9.762
 6488SOL     OW21470   7.700   3.882   2.733
 6488SOL    HW121471   7.720   3.951   2.670
 6488SOL    HW221472   7.783   3.836   2.745
 6489SOL     OW21473   9.145   1.865   6.041
 6489SOL    HW121474   9.238   1.859   6.019
 6489SOL    HW221475   9.118   1.951   6.009
 6490SOL     OW21476   1.414   6.919   6.110
 6490SOL    HW121477   1.383   6.997   6.155
 6490SOL    HW221478   1.388   6.847   6.167
 6491SOL     OW21479   0.751   9.889   7.936
 6491SOL    HW121480   0.837   9.847   7.934
 6491SOL    HW221481   0.769   9.980   7.958
 6492SOL     OW21482   1.227   0.921   0.754
 6492SOL    HW121483   1.138   0.951   0.773
 6492SOL    HW221484   1.284   0.988   0.792
 6493SOL     OW21485   3.085   1.710   0.339
 6493SOL    HW121486   3.100   1.788   0.391
 6493SOL    HW221487   3.114   1.638   0.395
 6494SOL     OW21488   7.461   1.893   3.914
 6494SOL    HW121489   7.547   1.935   3.915
 6494SOL    HW221490   7.457   1.843   3.995
 6495SOL     OW21491  11.041   6.328   3.641
 6495SOL    HW121492  11.046   6.358   3.550
 6495SOL    HW221493  10.994   6.245   3.636
 6496SOL     OW21494   5.719   2.427   2.083
 6496SOL    HW121495   5.767   2.403   2.162
 6496SOL    HW221496   5.634   2.458   2.114
 6497SOL     OW21497   6.399   1.084   4.062
 6497SOL    HW121498   6.312   1.053   4.086
 6497SOL    HW221499   6.416   1.044   3.976
 6498SOL     OW21500   6.595   7.122   1.300
 6498SOL    HW121501   6.669   7.174   1.331
 6498SOL    HW221502   6.583   7.055   1.367
 6499SOL     OW21503   0.395   1.681   1.326
 6499SOL    HW121504   0.483   1.698   1.358
 6499SOL    HW221505   0.370   1.761   1.280
 6500SOL     OW21506   9.459   9.550  10.891
 6500SOL    HW121507   9.375   9.583  10.922
 6500SOL    HW221508   9.475   9.472  10.944
 6501SOL     OW21509   2.787   0.793   1.202
 6501SOL    HW121510   2.740   0.759   1.278
 6501SOL    HW221511   2.768   0.730   1.132
 6502SOL     OW21512   7.334   8.946   4.673
 6502SOL    HW121513   7.309   8.930   4.582
 6502SOL    HW221514   7.349   9.040   4.677
 6503SOL     OW21515   6.343   7.482   3.076
 6503SOL    HW121516   6.412   7.443   3.022
 6503SOL    HW221517   6.381   7.563   3.108
 6504SOL     OW21518   1.148   9.163   5.115
 6504SOL    HW121519   1.233   9.120   5.127
 6504SOL    HW221520   1.156   9.246   5.162
 6505SOL     OW21521  10.077  11.030   9.414
 6505SOL    HW121522   9.990  11.033   9.453
 6505SOL    HW221523  10.136  11.061   9.483
 6506SOL     OW21524   4.187   1.202   8.747
 6506SOL    HW121525   4.281   1.183   8.738
 6506SOL    HW221526   4.159   1.226   8.658
 6507SOL     OW21527  10.064   8.523  10.890
 6507SOL    HW121528  10.149   8.484  10.911
 6507SOL    HW221529  10.060   8.602  10.944
 6508SOL     OW21530   6.155   2.145   9.524
 6508SOL    HW121531   6.145   2.053   9.497
 6508SOL    HW221532   6.070   2.185   9.505
 6509SOL     OW21533   2.000   5.464   3.710
 6509SOL    HW121534   2.043   5.395   3.659
 6509SOL    HW221535   2.020   5.443   3.801
 6510SOL     OW21536   5.119   9.856   9.122
 6510SOL    HW121537   5.140   9.764   9.105
 6510SOL    HW221538   5.076   9.855   9.207
 6511SOL     OW21539   3.968   8.902   9.265
 6511SOL    HW121540   3.998   8.847   9.337
 6511SOL    HW221541   3.949   8.987   9.305
 6512SOL     OW21542   1.134   5.745   8.523
 6512SOL    HW121543   1.139   5.690   8.601
 6512SOL    HW221544   1.111   5.684   8.453
 6513SOL     OW21545   3.445   0.830   1.732
 6513SOL    HW121546   3.483   0.878   1.658
 6513SOL    HW221547   3.399   0.756   1.691
 6514SOL     OW21548   2.609   4.512   0.234
 6514SOL    HW121549   2.667   4.525   0.159
 6514SOL    HW221550   2.638   4.576   0.299
 6515SOL     OW21551   4.680   2.658   5.620
 6515SOL    HW121552   4.776   2.657   5.624
 6515SOL    HW221553   4.658   2.587   5.559
 6516SOL     OW21554   3.179   0.839   2.504
 6516SOL    HW121555   3.191   0.744   2.512
 6516SOL    HW221556   3.185   0.872   2.593
 6517SOL     OW21557   2.519   8.112   0.494
 6517SOL    HW121558   2.556   8.199   0.480
 6517SOL    HW221559   2.511   8.075   0.406
 6518SOL     OW21560   3.919   3.893   2.760
 6518SOL    HW121561   3.885   3.982   2.770
 6518SOL    HW221562   3.899   3.869   2.669
 6519SOL     OW21563   3.529   7.420   1.569
 6519SOL    HW121564   3.506   7.386   1.655
 6519SOL    HW221565   3.598   7.484   1.586
 6520SOL     OW21566   1.201   9.368   4.491
 6520SOL    HW121567   1.176   9.298   4.431
 6520SOL    HW221568   1.282   9.403   4.454
 6521SOL     OW21569   3.385   6.804  -0.001
 6521SOL    HW121570   3.461   6.754  -0.030
 6521SOL    HW221571   3.410   6.838   0.085
 6522SOL     OW21572   5.041   5.914   3.190
 6522SOL    HW121573   5.117   5.864   3.160
 6522SOL    HW221574   4.993   5.852   3.245
 6523SOL     OW21575   1.349   7.980   7.425
 6523SOL    HW121576   1.366   8.060   7.475
 6523SOL    HW221577   1.254   7.973   7.422
 6524SOL     OW21578   1.270   7.087   2.005
 6524SOL    HW121579   1.349   7.130   1.971
 6524SOL    HW221580   1.270   7.106   2.098
 6525SOL     OW21581   5.898   7.371  10.174
 6525SOL    HW121582   5.965   7.385  10.241
 6525SOL    HW221583   5.817   7.403  10.213
 6526SOL     OW21584  10.924   1.659   4.956
 6526SOL    HW121585  10.864   1.710   5.010
 6526SOL    HW221586  11.004   1.652   5.009
 6527SOL     OW21587   4.722   7.448   4.980
 6527SOL    HW121588   4.771   7.525   4.953
 6527SOL    HW221589   4.691   7.469   5.068
 6528SOL     OW21590   1.767   6.619   5.113
 6528SOL    HW121591   1.824   6.640   5.039
 6528SOL    HW221592   1.763   6.700   5.164
 6529SOL     OW21593   3.562   0.256   0.521
 6529SOL    HW121594   3.550   0.331   0.463
 6529SOL    HW221595   3.651   0.225   0.502
 6530SOL     OW21596  10.820   8.908   2.347
 6530SOL    HW121597  10.753   8.842   2.363
 6530SOL    HW221598  10.893   8.859   2.310
 6531SOL     OW21599   2.410   3.205   4.304
 6531SOL    HW121600   2.458   3.125   4.284
 6531SOL    HW221601   2.478   3.270   4.321
 6532SOL     OW21602  10.112   9.124   3.623
 6532SOL    HW121603  10.045   9.191   3.609
 6532SOL    HW221604  10.195   9.170   3.610
 6533SOL     OW21605   6.009   6.845   3.017
 6533SOL    HW121606   5.958   6.835   3.097
 6533SOL    HW221607   6.096   6.871   3.047
 6534SOL     OW21608   0.455   5.815   8.474
 6534SOL    HW121609   0.382   5.754   8.463
 6534SOL    HW221610   0.446   5.877   8.401
 6535SOL     OW21611   7.518   9.909   7.338
 6535SOL    HW121612   7.553   9.998   7.344
 6535SOL    HW221613   7.427   9.920   7.310
 6536SOL     OW21614   2.501   0.054   7.605
 6536SOL    HW121615   2.417   0.096   7.587
 6536SOL    HW221616   2.485  -0.039   7.590
 6537SOL     OW21617   0.050   3.471   1.148
 6537SOL    HW121618   0.111   3.537   1.117
 6537SOL    HW221619   0.103   3.413   1.203
 6538SOL     OW21620   2.331  10.781   6.177
 6538SOL    HW121621   2.292  10.866   6.156
 6538SOL    HW221622   2.424  10.800   6.191
 6539SOL     OW21623   2.556   4.872   8.316
 6539SOL    HW121624   2.546   4.789   8.268
 6539SOL    HW221625   2.570   4.846   8.407
 6540SOL     OW21626   1.931   1.760   7.571
 6540SOL    HW121627   1.920   1.692   7.504
 6540SOL    HW221628   1.974   1.715   7.643
 6541SOL     OW21629   2.629   7.759   4.200
 6541SOL    HW121630   2.593   7.832   4.150
 6541SOL    HW221631   2.688   7.800   4.263
 6542SOL     OW21632   0.433   8.453   6.387
 6542SOL    HW121633   0.468   8.401   6.314
 6542SOL    HW221634   0.340   8.463   6.366
 6543SOL     OW21635   0.200   6.481   7.499
 6543SOL    HW121636   0.253   6.401   7.492
 6543SOL    HW221637   0.249   6.547   7.450
 6544SOL     OW21638   9.740   3.580   6.884
 6544SOL    HW121639   9.802   3.581   6.810
 6544SOL    HW221640   9.659   3.546   6.846
 6545SOL     OW21641   9.063   1.400   2.060
 6545SOL    HW121642   9.068   1.379   2.153
 6545SOL    HW221643   9.058   1.314   2.017
 6546SOL     OW21644   4.064   7.897   5.006
 6546SOL    HW121645   3.976   7.884   4.970
 6546SOL    HW221646   4.067   7.840   5.083
 6547SOL     OW21647   0.544   1.307   5.322
 6547SOL    HW121648   0.593   1.356   5.387
 6547SOL    HW221649   0.457   1.295   5.360
 6548SOL     OW21650   5.543   4.170   8.737
 6548SOL    HW121651   5.540   4.075   8.747
 6548SOL    HW221652   5.625   4.196   8.779
 6549SOL     OW21653   6.094   8.067   8.100
 6549SOL    HW121654   6.036   8.132   8.061
 6549SOL    HW221655   6.176   8.076   8.052
 6550SOL     OW21656   2.626  10.659   1.994
 6550SOL    HW121657   2.548  10.699   2.032
 6550SOL    HW221658   2.640  10.707   1.912
 6551SOL     OW21659   2.454   7.914   2.785
 6551SOL    HW121660   2.429   7.985   2.844
 6551SOL    HW221661   2.526   7.949   2.732
 6552SOL     OW21662   8.583   3.973   9.468
 6552SOL    HW121663   8.503   3.978   9.416
 6552SOL    HW221664   8.594   4.061   9.504
 6553SOL     OW21665   2.411   1.131   1.655
 6553SOL    HW121666   2.481   1.095   1.600
 6553SOL    HW221667   2.352   1.174   1.593
 6554SOL     OW21668   9.097   9.121   9.432
 6554SOL    HW121669   9.150   9.118   9.512
 6554SOL    HW221670   9.140   9.059   9.372
 6555SOL     OW21671   5.003   0.743   7.716
 6555SOL    HW121672   4.967   0.669   7.765
 6555SOL    HW221673   5.048   0.796   7.781
 6556SOL     OW21674   9.397  10.930   5.407
 6556SOL    HW121675   9.323  10.871   5.392
 6556SOL    HW221676   9.444  10.891   5.480
 6557SOL     OW21677   8.212   9.507   6.877
 6557SOL    HW121678   8.227   9.563   6.801
 6557SOL    HW221679   8.223   9.565   6.952
 6558SOL     OW21680   3.874   6.257   5.125
 6558SOL    HW121681   3.837   6.312   5.193
 6558SOL    HW221682   3.888   6.316   5.051
 6559SOL     OW21683   8.742  10.855  10.969
 6559SOL    HW121684   8.832  10.874  10.997
 6559SOL    HW221685   8.748  10.769  10.927
 6560SOL     OW21686   7.925   4.849   8.574
 6560SOL    HW121687   7.846   4.879   8.530
 6560SOL    HW221688   7.894   4.799   8.649
 6561SOL     OW21689   5.146  10.243   2.213
 6561SOL    HW121690   5.116  10.265   2.301
 6561SOL    HW221691   5.230  10.288   2.204
 6562SOL     OW21692   8.270   8.634   3.363
 6562SOL    HW121693   8.228   8.577   3.427
 6562SOL    HW221694   8.352   8.589   3.341
 6563SOL     OW21695   5.987   4.827   3.892
 6563SOL    HW121696   6.041   4.777   3.831
 6563SOL    HW221697   5.995   4.917   3.862
 6564SOL     OW21698   3.707   0.713   0.426
 6564SOL    HW121699   3.769   0.778   0.459
 6564SOL    HW221700   3.759   0.658   0.367
 6565SOL     OW21701  11.046   9.473   0.753
 6565SOL    HW121702  10.997   9.433   0.681
 6565SOL    HW221703  11.074   9.558   0.719
 6566SOL     OW21704   4.127   8.906  11.070
 6566SOL    HW121705   4.050   8.866  11.111
 6566SOL    HW221706   4.151   8.977  11.128
 6567SOL     OW21707   8.708   9.947   4.172
 6567SOL    HW121708   8.686   9.960   4.080
 6567SOL    HW221709   8.742  10.031   4.201
 6568SOL     OW21710   1.499   1.742   0.602
 6568SOL    HW121711   1.490   1.694   0.684
 6568SOL    HW221712   1.593   1.759   0.594
 6569SOL     OW21713   1.556   0.560   0.650
 6569SOL    HW121714   1.640   0.601   0.629
 6569SOL    HW221715   1.574   0.466   0.648
 6570SOL     OW21716   8.772  10.541   3.804
 6570SOL    HW121717   8.705  10.553   3.871
 6570SOL    HW221718   8.766  10.449   3.780
 6571SOL     OW21719   0.333   9.671   8.185
 6571SOL    HW121720   0.338   9.703   8.095
 6571SOL    HW221721   0.402   9.718   8.231
 6572SOL     OW21722   7.225   7.363   6.472
 6572SOL    HW121723   7.309   7.371   6.516
 6572SOL    HW221724   7.160   7.380   6.540
 6573SOL     OW21725   5.862  10.432  10.716
 6573SOL    HW121726   5.900  10.344  10.718
 6573SOL    HW221727   5.880  10.468  10.803
 6574SOL     OW21728   1.573   1.023   5.143
 6574SOL    HW121729   1.646   1.079   5.118
 6574SOL    HW221730   1.496   1.078   5.134
 6575SOL     OW21731   9.805  10.247   8.026
 6575SOL    HW121732   9.769  10.176   7.972
 6575SOL    HW221733   9.850  10.304   7.963
 6576SOL     OW21734  10.603  10.555   2.571
 6576SOL    HW121735  10.565  10.478   2.612
 6576SOL    HW221736  10.549  10.569   2.493
 6577SOL     OW21737   0.766   8.843   7.306
 6577SOL    HW121738   0.714   8.786   7.249
 6577SOL    HW221739   0.701   8.889   7.359
 6578SOL     OW21740   0.058   5.759   3.611
 6578SOL    HW121741   0.089   5.669   3.626
 6578SOL    HW221742   0.101   5.811   3.679
 6579SOL     OW21743   2.766   5.707   4.880
 6579SOL    HW121744   2.804   5.622   4.902
 6579SOL    HW221745   2.684   5.685   4.835
 6580SOL     OW21746   9.868  10.232   3.913
 6580SOL    HW121747   9.924  10.157   3.934
 6580SOL    HW221748   9.928  10.306   3.908
 6581SOL     OW21749  10.205   0.504   1.267
 6581SOL    HW121750  10.210   0.418   1.309
 6581SOL    HW221751  10.193   0.484   1.174
 6582SOL     OW21752   0.233   5.688   3.101
 6582SOL    HW121753   0.318   5.658   3.069
 6582SOL    HW221754   0.217   5.769   3.053
 6583SOL     OW21755   8.795   2.870   3.340
 6583SOL    HW121756   8.873   2.922   3.319
 6583SOL    HW221757   8.754   2.916   3.412
 6584SOL     OW21758   1.264   3.825   1.649
 6584SOL    HW121759   1.267   3.769   1.726
 6584SOL    HW221760   1.343   3.802   1.600
 6585SOL     OW21761   5.819   5.778   0.397
 6585SOL    HW121762   5.792   5.842   0.331
 6585SOL    HW221763   5.813   5.693   0.352
 6586SOL     OW21764   5.464   5.435   3.844
 6586SOL    HW121765   5.453   5.381   3.766
 6586SOL    HW221766   5.376   5.441   3.881
 6587SOL     OW21767   4.626   9.792   0.592
 6587SOL    HW121768   4.564   9.745   0.536
 6587SOL    HW221769   4.595   9.882   0.592
 6588SOL     OW21770   4.625   2.659   6.155
 6588SOL    HW121771   4.721   2.662   6.149
 6588SOL    HW221772   4.596   2.652   6.064
 6589SOL     OW21773   2.005   6.121   1.496
 6589SOL    HW121774   2.052   6.187   1.546
 6589SOL    HW221775   2.072   6.080   1.441
 6590SOL     OW21776   5.685   9.703   5.440
 6590SOL    HW121777   5.746   9.751   5.495
 6590SOL    HW221778   5.606   9.694   5.493
 6591SOL     OW21779   2.799   7.597   4.045
 6591SOL    HW121780   2.742   7.634   4.112
 6591SOL    HW221781   2.744   7.533   4.000
 6592SOL     OW21782   2.267   6.766   2.533
 6592SOL    HW121783   2.231   6.854   2.543
 6592SOL    HW221784   2.329   6.756   2.605
 6593SOL     OW21785   8.791   3.105   5.858
 6593SOL    HW121786   8.872   3.136   5.818
 6593SOL    HW221787   8.760   3.178   5.911
 6594SOL     OW21788   2.277   4.913   3.167
 6594SOL    HW121789   2.221   4.990   3.164
 6594SOL    HW221790   2.230   4.851   3.222
 6595SOL     OW21791   8.685   9.823   7.514
 6595SOL    HW121792   8.662   9.730   7.512
 6595SOL    HW221793   8.776   9.824   7.543
 6596SOL     OW21794   2.488   3.160   5.619
 6596SOL    HW121795   2.485   3.239   5.565
 6596SOL    HW221796   2.564   3.112   5.586
 6597SOL     OW21797   4.983   8.974   1.328
 6597SOL    HW121798   4.928   8.929   1.264
 6597SOL    HW221799   5.072   8.962   1.295
 6598SOL     OW21800   1.954   0.465   1.821
 6598SOL    HW121801   1.899   0.419   1.884
 6598SOL    HW221802   1.951   0.556   1.848
 6599SOL     OW21803   4.833   9.874   9.423
 6599SOL    HW121804   4.911   9.819   9.413
 6599SOL    HW221805   4.812   9.870   9.516
 6600SOL     OW21806  10.551   3.616   6.803
 6600SOL    HW121807  10.626   3.676   6.800
 6600SOL    HW221808  10.508   3.628   6.718
 6601SOL     OW21809   4.236   5.994   5.106
 6601SOL    HW121810   4.186   6.064   5.147
 6601SOL    HW221811   4.202   5.913   5.145
 6602SOL     OW21812   3.191   2.791   4.943
 6602SOL    HW121813   3.166   2.875   4.981
 6602SOL    HW221814   3.227   2.814   4.857
 6603SOL     OW21815   3.016   9.315   7.557
 6603SOL    HW121816   3.072   9.251   7.513
 6603SOL    HW221817   2.967   9.357   7.486
 6604SOL     OW21818   5.829   2.509   1.848
 6604SOL    HW121819   5.886   2.582   1.826
 6604SOL    HW221820   5.815   2.517   1.942
 6605SOL     OW21821  10.155   0.717   3.402
 6605SOL    HW121822  10.172   0.810   3.416
 6605SOL    HW221823  10.233   0.684   3.358
 6606SOL     OW21824   8.124   9.475   2.706
 6606SOL    HW121825   8.209   9.468   2.750
 6606SOL    HW221826   8.107   9.387   2.672
 6607SOL     OW21827   0.643   4.659   7.233
 6607SOL    HW121828   0.655   4.654   7.138
 6607SOL    HW221829   0.660   4.570   7.263
 6608SOL     OW21830   0.873   9.263   2.553
 6608SOL    HW121831   0.818   9.209   2.496
 6608SOL    HW221832   0.849   9.236   2.641
 6609SOL     OW21833   4.018   1.081   9.430
 6609SOL    HW121834   4.046   1.003   9.478
 6609SOL    HW221835   3.925   1.067   9.415
 6610SOL     OW21836   8.651   8.950   1.825
 6610SOL    HW121837   8.587   8.953   1.754
 6610SOL    HW221838   8.713   9.020   1.804
 6611SOL     OW21839   9.139   0.275   7.570
 6611SOL    HW121840   9.052   0.307   7.549
 6611SOL    HW221841   9.136   0.256   7.663
 6612SOL     OW21842   1.076   6.412   4.579
 6612SOL    HW121843   1.128   6.484   4.614
 6612SOL    HW221844   1.015   6.390   4.649
 6613SOL     OW21845   9.815   0.611   7.969
 6613SOL    HW121846   9.756   0.596   8.042
 6613SOL    HW221847   9.897   0.641   8.009
 6614SOL     OW21848   0.812  11.029   1.557
 6614SOL    HW121849   0.774  11.090   1.493
 6614SOL    HW221850   0.791  10.942   1.522
 6615SOL     OW21851   1.157   6.856   7.848
 6615SOL    HW121852   1.250   6.879   7.852
 6615SOL    HW221853   1.152   6.788   7.781
 6616SOL     OW21854   0.696   8.095   5.419
 6616SOL    HW121855   0.686   8.094   5.514
 6616SOL    HW221856   0.672   8.184   5.393
 6617SOL     OW21857   2.584   8.911   3.496
 6617SOL    HW121858   2.528   8.987   3.487
 6617SOL    HW221859   2.596   8.901   3.590
 6618SOL     OW21860   0.682   3.091   5.105
 6618SOL    HW121861   0.606   3.133   5.064
 6618SOL    HW221862   0.659   3.083   5.197
 6619SOL     OW21863   2.925   7.038   2.118
 6619SOL    HW121864   2.942   7.016   2.209
 6619SOL    HW221865   2.905   6.954   2.077
 6620SOL     OW21866   5.968   6.022  11.051
 6620SOL    HW121867   5.939   6.076  10.978
 6620SOL    HW221868   6.036   6.073  11.094
 6621SOL     OW21869  10.029   8.466   7.997
 6621SOL    HW121870  10.058   8.378   7.971
 6621SOL    HW221871   9.934   8.462   7.991
 6622SOL     OW21872   5.485   5.202   0.566
 6622SOL    HW121873   5.487   5.287   0.609
 6622SOL    HW221874   5.426   5.213   0.491
 6623SOL     OW21875   2.773   2.150   0.321
 6623SOL    HW121876   2.764   2.134   0.227
 6623SOL    HW221877   2.827   2.077   0.352
 6624SOL     OW21878   0.854   6.781   5.936
 6624SOL    HW121879   0.938   6.760   5.976
 6624SOL    HW221880   0.843   6.875   5.950
 6625SOL     OW21881   0.706  10.365   6.688
 6625SOL    HW121882   0.632  10.305   6.684
 6625SOL    HW221883   0.775  10.315   6.732
 6626SOL     OW21884   4.535   9.209   2.456
 6626SOL    HW121885   4.570   9.193   2.368
 6626SOL    HW221886   4.580   9.145   2.512
 6627SOL     OW21887   0.985   4.589   3.078
 6627SOL    HW121888   0.974   4.559   2.987
 6627SOL    HW221889   0.919   4.658   3.088
 6628SOL     OW21890   2.073   0.486   3.161
 6628SOL    HW121891   2.123   0.406   3.142
 6628SOL    HW221892   1.982   0.460   3.148
 6629SOL     OW21893   1.739   7.816   4.390
 6629SOL    HW121894   1.738   7.842   4.298
 6629SOL    HW221895   1.713   7.724   4.388
 6630SOL     OW21896  10.406   8.883   2.970
 6630SOL    HW121897  10.390   8.808   3.028
 6630SOL    HW221898  10.319   8.921   2.955
 6631SOL     OW21899   6.978  10.527  10.526
 6631SOL    HW121900   6.992  10.448  10.579
 6631SOL    HW221901   6.883  10.535  10.518
 6632SOL     OW21902   4.102   8.310   2.461
 6632SOL    HW121903   4.180   8.364   2.475
 6632SOL    HW221904   4.079   8.278   2.548
 6633SOL     OW21905   9.613   9.492   1.755
 6633SOL    HW121906   9.680   9.424   1.743
 6633SOL    HW221907   9.538   9.445   1.790
 6634SOL     OW21908   1.748   4.949   0.618
 6634SOL    HW121909   1.825   4.895   0.600
 6634SOL    HW221910   1.690   4.891   0.666
 6635SOL     OW21911  10.281  10.609   4.615
 6635SOL    HW121912  10.261  10.604   4.708
 6635SOL    HW221913  10.283  10.703   4.595
 6636SOL     OW21914   2.515   8.938   9.801
 6636SOL    HW121915   2.461   8.997   9.748
 6636SOL    HW221916   2.523   8.858   9.748
 6637SOL     OW21917   0.559   4.233  10.982
 6637SOL    HW121918   0.540   4.141  10.964
 6637SOL    HW221919   0.565   4.238  11.077
 6638SOL     OW21920   3.069   1.034   6.137
 6638SOL    HW121921   3.115   1.061   6.216
 6638SOL    HW221922   3.136   1.034   6.069
 6639SOL     OW21923   7.441  10.699   3.960
 6639SOL    HW121924   7.436  10.713   3.865
 6639SOL    HW221925   7.429  10.605   3.971
 6640SOL     OW21926   9.663   6.900   3.386
 6640SOL    HW121927   9.734   6.946   3.430
 6640SOL    HW221928   9.690   6.808   3.388
 6641SOL     OW21929   4.219   5.040   8.635
 6641SOL    HW121930   4.305   5.076   8.611
 6641SOL    HW221931   4.157   5.086   8.579
 6642SOL     OW21932   3.566   9.851   8.266
 6642SOL    HW121933   3.503   9.896   8.322
 6642SOL    HW221934   3.648   9.900   8.277
 6643SOL     OW21935   0.040  10.312   2.430
 6643SOL    HW121936  -0.055  10.326   2.435
 6643SOL    HW221937   0.077  10.400   2.426
 6644SOL     OW21938   9.231   0.558   7.522
 6644SOL    HW121939   9.209   0.465   7.532
 6644SOL    HW221940   9.237   0.570   7.427
 6645SOL     OW21941   6.130   2.078   5.577
 6645SOL    HW121942   6.199   2.142   5.593
 6645SOL    HW221943   6.126   2.026   5.657
 6646SOL     OW21944   9.056   9.545  11.022
 6646SOL    HW121945   9.070   9.461  11.067
 6646SOL    HW221946   9.144   9.582  11.013
 6647SOL     OW21947   9.918   3.282  11.014
 6647SOL    HW121948   9.984   3.232  11.063
 6647SOL    HW221949   9.968   3.348  10.967
 6648SOL     OW21950   1.908   0.484   7.375
 6648SOL    HW121951   1.870   0.543   7.310
 6648SOL    HW221952   1.931   0.405   7.325
 6649SOL     OW21953   4.085   3.502   6.973
 6649SOL    HW121954   4.085   3.478   6.880
 6649SOL    HW221955   3.993   3.497   6.999
 6650SOL     OW21956   1.539   9.985   2.768
 6650SOL    HW121957   1.486  10.055   2.731
 6650SOL    HW221958   1.532   9.914   2.704
 6651SOL     OW21959   5.988   1.063   8.134
 6651SOL    HW121960   5.910   1.101   8.094
 6651SOL    HW221961   6.050   1.136   8.141
 6652SOL     OW21962   0.407   0.618   7.826
 6652SOL    HW121963   0.346   0.691   7.832
 6652SOL    HW221964   0.407   0.580   7.914
 6653SOL     OW21965   2.258   7.378   3.667
 6653SOL    HW121966   2.189   7.377   3.601
 6653SOL    HW221967   2.272   7.286   3.689
 6654SOL     OW21968   1.263   5.056   1.060
 6654SOL    HW121969   1.296   5.145   1.050
 6654SOL    HW221970   1.276   5.036   1.152
 6655SOL     OW21971   1.250   6.292   2.277
 6655SOL    HW121972   1.172   6.341   2.302
 6655SOL    HW221973   1.288   6.342   2.205
 6656SOL     OW21974   3.613   9.035   3.202
 6656SOL    HW121975   3.606   9.061   3.110
 6656SOL    HW221976   3.558   9.097   3.249
 6657SOL     OW21977   3.840   8.490   5.553
 6657SOL    HW121978   3.805   8.485   5.464
 6657SOL    HW221979   3.897   8.413   5.560
 6658SOL     OW21980   1.861   8.693   9.804
 6658SOL    HW121981   1.889   8.784   9.806
 6658SOL    HW221982   1.781   8.691   9.857
 6659SOL     OW21983   8.657   7.854   5.753
 6659SOL    HW121984   8.620   7.777   5.710
 6659SOL    HW221985   8.703   7.900   5.683
 6660SOL     OW21986   1.862   0.305   5.440
 6660SOL    HW121987   1.845   0.392   5.476
 6660SOL    HW221988   1.815   0.304   5.356
 6661SOL     OW21989   4.351   9.486  10.113
 6661SOL    HW121990   4.338   9.506  10.205
 6661SOL    HW221991   4.279   9.530  10.068
 6662SOL     OW21992   1.279   2.692   0.867
 6662SOL    HW121993   1.316   2.630   0.929
 6662SOL    HW221994   1.332   2.681   0.788
 6663SOL     OW21995   3.144   4.447   3.704
 6663SOL    HW121996   3.123   4.425   3.613
 6663SOL    HW221997   3.190   4.530   3.698
 6664SOL     OW21998   3.407   7.586   0.358
 6664SOL    HW121999   3.312   7.598   0.361
 6664SOL    HW222000   3.443   7.656   0.412
 6665SOL     OW22001   8.424   8.977  10.985
 6665SOL    HW122002   8.373   9.056  10.966
 6665SOL    HW222003   8.390   8.911  10.924
 6666SOL     OW22004   8.807   7.962   8.368
 6666SOL    HW122005   8.880   7.927   8.317
 6666SOL    HW222006   8.802   8.054   8.343
 6667SOL     OW22007   3.029   6.435   8.719
 6667SOL    HW122008   2.939   6.437   8.749
 6667SOL    HW222009   3.023   6.446   8.624
 6668SOL     OW22010   7.379   2.300  10.959
 6668SOL    HW122011   7.404   2.208  10.949
 6668SOL    HW222012   7.299   2.309  10.907
 6669SOL     OW22013   3.539   7.829   1.798
 6669SOL    HW122014   3.459   7.779   1.816
 6669SOL    HW222015   3.572   7.791   1.716
 6670SOL     OW22016   0.664   0.667   7.973
 6670SOL    HW122017   0.604   0.617   8.029
 6670SOL    HW222018   0.609   0.735   7.934
 6671SOL     OW22019   4.029  10.391   1.694
 6671SOL    HW122020   4.002  10.464   1.750
 6671SOL    HW222021   4.117  10.415   1.664
 6672SOL     OW22022   2.680   4.942   5.818
 6672SOL    HW122023   2.770   4.912   5.803
 6672SOL    HW222024   2.689   5.034   5.841
 6673SOL     OW22025  10.103   8.706   4.955
 6673SOL    HW122026  10.185   8.681   4.912
 6673SOL    HW222027  10.088   8.796   4.927
 6674SOL     OW22028   3.006   6.698   4.121
 6674SOL    HW122029   2.921   6.680   4.081
 6674SOL    HW222030   3.067   6.698   4.047
 6675SOL     OW22031  11.007   6.394   3.367
 6675SOL    HW122032  10.935   6.454   3.386
 6675SOL    HW222033  10.995   6.371   3.275
 6676SOL     OW22034   9.182  10.837   2.921
 6676SOL    HW122035   9.168  10.748   2.888
 6676SOL    HW222036   9.238  10.826   2.998
 6677SOL     OW22037   9.441  10.212   5.807
 6677SOL    HW122038   9.357  10.254   5.788
 6677SOL    HW222039   9.501  10.247   5.741
 6678SOL     OW22040   1.601   9.377   9.470
 6678SOL    HW122041   1.527   9.379   9.409
 6678SOL    HW222042   1.659   9.446   9.439
 6679SOL     OW22043  10.132   6.264  10.773
 6679SOL    HW122044  10.148   6.192  10.711
 6679SOL    HW222045  10.203   6.325  10.756
 6680SOL     OW22046   9.319  10.782   6.161
 6680SOL    HW122047   9.308  10.857   6.219
 6680SOL    HW222048   9.279  10.709   6.208
 6681SOL     OW22049   0.592  10.023   6.464
 6681SOL    HW122050   0.681  10.056   6.478
 6681SOL    HW222051   0.583   9.950   6.525
 6682SOL     OW22052   3.374  11.061   1.463
 6682SOL    HW122053   3.419  11.126   1.517
 6682SOL    HW222054   3.419  11.065   1.378
 6683SOL     OW22055   1.924   4.767   3.063
 6683SOL    HW122056   1.935   4.862   3.059
 6683SOL    HW222057   1.930   4.746   3.156
 6684SOL     OW22058   6.422  10.503   6.315
 6684SOL    HW122059   6.413  10.598   6.310
 6684SOL    HW222060   6.484  10.489   6.386
 6685SOL     OW22061   0.358   4.555   4.032
 6685SOL    HW122062   0.421   4.623   4.010
 6685SOL    HW222063   0.284   4.602   4.069
 6686SOL     OW22064   9.677   3.634  10.303
 6686SOL    HW122065   9.639   3.669  10.383
 6686SOL    HW222066   9.638   3.547  10.294
 6687SOL     OW22067   2.367   7.242   4.545
 6687SOL    HW122068   2.438   7.181   4.565
 6687SOL    HW222069   2.399   7.327   4.575
 6688SOL     OW22070   2.211   2.550   4.839
 6688SOL    HW122071   2.244   2.471   4.882
 6688SOL    HW222072   2.282   2.577   4.781
 6689SOL     OW22073   7.914   7.281   2.137
 6689SOL    HW122074   7.965   7.231   2.201
 6689SOL    HW222075   7.848   7.219   2.105
 6690SOL     OW22076   4.850  10.223   2.117
 6690SOL    HW122077   4.931  10.261   2.151
 6690SOL    HW222078   4.866  10.128   2.116
 6691SOL     OW22079   3.781   7.202   2.733
 6691SOL    HW122080   3.735   7.149   2.667
 6691SOL    HW222081   3.775   7.150   2.813
 6692SOL     OW22082   1.266   4.267   1.820
 6692SOL    HW122083   1.329   4.210   1.776
 6692SOL    HW222084   1.251   4.338   1.758
 6693SOL     OW22085   9.357   9.154   6.371
 6693SOL    HW122086   9.444   9.160   6.410
 6693SOL    HW222087   9.297   9.159   6.445
 6694SOL     OW22088   5.407   3.936   2.586
 6694SOL    HW122089   5.389   3.935   2.680
 6694SOL    HW222090   5.465   4.011   2.573
 6695SOL     OW22091   1.046   6.699   2.207
 6695SOL    HW122092   1.026   6.779   2.158
 6695SOL    HW222093   1.097   6.728   2.282
 6696SOL     OW22094   0.101   4.984   6.117
 6696SOL    HW122095   0.191   4.955   6.129
 6696SOL    HW222096   0.059   4.912   6.069
 6697SOL     OW22097   8.939   0.169   6.626
 6697SOL    HW122098   8.864   0.110   6.618
 6697SOL    HW222099   8.928   0.232   6.555
 6698SOL     OW22100   0.865   1.734   6.548
 6698SOL    HW122101   0.834   1.643   6.551
 6698SOL    HW222102   0.786   1.786   6.533
 6699SOL     OW22103   5.606   1.241   3.432
 6699SOL    HW122104   5.664   1.245   3.356
 6699SOL    HW222105   5.612   1.150   3.462
 6700SOL     OW22106   7.348   0.188   9.309
 6700SOL    HW122107   7.296   0.260   9.344
 6700SOL    HW222108   7.363   0.130   9.383
 6701SOL     OW22109   5.845  10.028   1.566
 6701SOL    HW122110   5.909   9.965   1.531
 6701SOL    HW222111   5.783  10.041   1.494
 6702SOL     OW22112   0.006   9.600   6.601
 6702SOL    HW122113  -0.080   9.608   6.559
 6702SOL    HW222114   0.064   9.571   6.530
 6703SOL     OW22115   6.915   9.446   6.281
 6703SOL    HW122116   6.883   9.527   6.242
 6703SOL    HW222117   6.963   9.403   6.210
 6704SOL     OW22118   9.250   3.125   8.741
 6704SOL    HW122119   9.294   3.189   8.685
 6704SOL    HW222120   9.166   3.108   8.698
 6705SOL     OW22121  10.980   2.828   0.112
 6705SOL    HW122122  10.917   2.809   0.182
 6705SOL    HW222123  10.970   2.921   0.095
 6706SOL     OW22124   0.628   2.214   5.390
 6706SOL    HW122125   0.550   2.251   5.348
 6706SOL    HW222126   0.620   2.240   5.482
 6707SOL     OW22127   3.537   9.925  10.918
 6707SOL    HW122128   3.537   9.942  10.824
 6707SOL    HW222129   3.554  10.010  10.958
 6708SOL     OW22130  10.895   6.086   6.764
 6708SOL    HW122131  10.901   6.113   6.672
 6708SOL    HW222132  10.822   6.024   6.766
 6709SOL     OW22133   3.652   1.044   3.049
 6709SOL    HW122134   3.726   1.026   2.991
 6709SOL    HW222135   3.595   1.102   2.998
 6710SOL     OW22136   7.224   9.051   5.662
 6710SOL    HW122137   7.176   8.975   5.695
 6710SOL    HW222138   7.160   9.100   5.611
 6711SOL     OW22139   0.177   6.772   1.972
 6711SOL    HW122140   0.231   6.742   2.045
 6711SOL    HW222141   0.115   6.833   2.011
 6712SOL     OW22142   5.775   7.499   1.756
 6712SOL    HW122143   5.749   7.491   1.664
 6712SOL    HW222144   5.696   7.530   1.801
 6713SOL     OW22145   1.281   8.872   4.541
 6713SOL    HW122146   1.314   8.872   4.451
 6713SOL    HW222147   1.304   8.785   4.574
 6714SOL     OW22148  10.343   7.368   1.570
 6714SOL    HW122149  10.404   7.438   1.547
 6714SOL    HW222150  10.301   7.398   1.650
 6715SOL     OW22151   0.840   1.927   4.712
 6715SOL    HW122152   0.818   2.000   4.769
 6715SOL    HW222153   0.761   1.911   4.661
 6716SOL     OW22154   2.617  10.198   5.466
 6716SOL    HW122155   2.543  10.195   5.526
 6716SOL    HW222156   2.595  10.267   5.404
 6717SOL     OW22157   4.020   4.247   7.922
 6717SOL    HW122158   4.057   4.317   7.976
 6717SOL    HW222159   4.091   4.183   7.914
 6718SOL     OW22160   4.148   4.143   6.510
 6718SOL    HW122161   4.205   4.082   6.558
 6718SOL    HW222162   4.098   4.086   6.451
 6719SOL     OW22163   3.160   8.585   0.886
 6719SOL    HW122164   3.210   8.534   0.950
 6719SOL    HW222165   3.069   8.563   0.903
 6720SOL     OW22166   1.185   7.451   5.852
 6720SOL    HW122167   1.104   7.415   5.887
 6720SOL    HW222168   1.254   7.398   5.892
 6721SOL     OW22169   4.233   7.598   8.299
 6721SOL    HW122170   4.232   7.650   8.379
 6721SOL    HW222171   4.291   7.646   8.240
 6722SOL     OW22172   5.554  10.084   7.070
 6722SOL    HW122173   5.472  10.059   7.028
 6722SOL    HW222174   5.614  10.012   7.048
 6723SOL     OW22175   4.574   7.349   1.841
 6723SOL    HW122176   4.552   7.434   1.804
 6723SOL    HW222177   4.534   7.349   1.928
 6724SOL     OW22178   2.613   1.283   8.829
 6724SOL    HW122179   2.557   1.216   8.868
 6724SOL    HW222180   2.684   1.295   8.892
 6725SOL     OW22181   0.005   6.486   9.463
 6725SOL    HW122182   0.009   6.435   9.381
 6725SOL    HW222183   0.053   6.433   9.526
 6726SOL     OW22184   9.910   9.985   1.304
 6726SOL    HW122185   9.912   9.890   1.318
 6726SOL    HW222186   9.851  10.018   1.371
 6727SOL     OW22187   8.834   7.783   3.535
 6727SOL    HW122188   8.814   7.871   3.504
 6727SOL    HW222189   8.832   7.729   3.456
 6728SOL     OW22190   1.402   6.832   4.327
 6728SOL    HW122191   1.453   6.801   4.251
 6728SOL    HW222192   1.448   6.795   4.403
 6729SOL     OW22193  10.998   8.126   1.965
 6729SOL    HW122194  10.991   8.052   1.904
 6729SOL    HW222195  10.991   8.086   2.052
 6730SOL     OW22196  10.866   4.991   4.547
 6730SOL    HW122197  10.944   4.945   4.517
 6730SOL    HW222198  10.898   5.075   4.579
 6731SOL     OW22199   0.727   4.279   7.414
 6731SOL    HW122200   0.705   4.192   7.381
 6731SOL    HW222201   0.720   4.336   7.337
 6732SOL     OW22202   6.515   4.556   2.283
 6732SOL    HW122203   6.516   4.492   2.354
 6732SOL    HW222204   6.472   4.633   2.320
 6733SOL     OW22205   6.435   6.772   8.446
 6733SOL    HW122206   6.451   6.858   8.408
 6733SOL    HW222207   6.362   6.785   8.506
 6734SOL     OW22208  10.287   2.592   5.150
 6734SOL    HW122209  10.339   2.569   5.227
 6734SOL    HW222210  10.262   2.507   5.112
 6735SOL     OW22211   9.625  10.282   5.145
 6735SOL    HW122212   9.617  10.375   5.124
 6735SOL    HW222213   9.711  10.274   5.187
 6736SOL     OW22214   0.524   0.726   8.709
 6736SOL    HW122215   0.618   0.745   8.717
 6736SOL    HW222216   0.500   0.686   8.792
 6737SOL     OW22217   7.176   4.881   6.051
 6737SOL    HW122218   7.102   4.895   6.110
 6737SOL    HW222219   7.146   4.915   5.966
 6738SOL     OW22220  10.539  10.087   5.390
 6738SOL    HW122221  10.583  10.002   5.384
 6738SOL    HW222222  10.604  10.150   5.359
 6739SOL     OW22223  10.899   8.616   3.309
 6739SOL    HW122224  10.856   8.646   3.229
 6739SOL    HW222225  10.828   8.579   3.361
 6740SOL     OW22226   0.659   2.939   4.803
 6740SOL    HW122227   0.647   2.849   4.772
 6740SOL    HW222228   0.675   2.930   4.897
 6741SOL     OW22229   3.259   9.389   4.819
 6741SOL    HW122230   3.330   9.438   4.777
 6741SOL    HW222231   3.278   9.297   4.797
 6742SOL     OW22232  10.261   5.629   2.693
 6742SOL    HW122233  10.275   5.585   2.777
 6742SOL    HW222234  10.345   5.622   2.648
 6743SOL     OW22235   1.538   4.629   6.507
 6743SOL    HW122236   1.550   4.656   6.598
 6743SOL    HW222237   1.530   4.533   6.511
 6744SOL     OW22238   4.072   8.522   0.453
 6744SOL    HW122239   3.997   8.574   0.424
 6744SOL    HW222240   4.035   8.437   0.476
 6745SOL     OW22241   1.527   1.822   7.081
 6745SOL    HW122242   1.541   1.777   6.997
 6745SOL    HW222243   1.432   1.831   7.087
 6746SOL     OW22244   0.420   7.459   4.814
 6746SOL    HW122245   0.386   7.431   4.899
 6746SOL    HW222246   0.474   7.535   4.834
 6747SOL     OW22247   6.659   7.406   6.952
 6747SOL    HW122248   6.729   7.445   7.004
 6747SOL    HW222249   6.600   7.478   6.932
 6748SOL     OW22250   0.296   7.218   7.714
 6748SOL    HW122251   0.284   7.123   7.712
 6748SOL    HW222252   0.304   7.239   7.806
 6749SOL     OW22253   0.578   1.056   5.734
 6749SOL    HW122254   0.493   1.030   5.770
 6749SOL    HW222255   0.611   0.976   5.692
 6750SOL     OW22256  10.795   8.194   1.441
 6750SOL    HW122257  10.851   8.226   1.370
 6750SOL    HW222258  10.751   8.272   1.475
 6751SOL     OW22259   5.890   9.637   4.110
 6751SOL    HW122260   5.921   9.578   4.179
 6751SOL    HW222261   5.800   9.609   4.093
 6752SOL     OW22262   9.362   7.531   6.766
 6752SOL    HW122263   9.383   7.545   6.858
 6752SOL    HW222264   9.423   7.588   6.719
 6753SOL     OW22265   5.881   1.388   6.387
 6753SOL    HW122266   5.819   1.370   6.457
 6753SOL    HW222267   5.826   1.418   6.314
 6754SOL     OW22268   0.638   9.373   5.995
 6754SOL    HW122269   0.671   9.396   6.082
 6754SOL    HW222270   0.545   9.396   5.997
 6755SOL     OW22271   1.449   3.192   6.961
 6755SOL    HW122272   1.443   3.123   7.027
 6755SOL    HW222273   1.360   3.227   6.955
 6756SOL     OW22274   0.041   2.526   0.414
 6756SOL    HW122275   0.025   2.618   0.434
 6756SOL    HW222276  -0.037   2.498   0.365
 6757SOL     OW22277  10.941   1.106   4.380
 6757SOL    HW122278  10.849   1.130   4.382
 6757SOL    HW222279  10.951   1.056   4.299
 6758SOL     OW22280   1.496   8.500   9.459
 6758SOL    HW122281   1.560   8.431   9.439
 6758SOL    HW222282   1.476   8.539   9.374
 6759SOL     OW22283   8.192   2.173   4.649
 6759SOL    HW122284   8.194   2.266   4.669
 6759SOL    HW222285   8.227   2.131   4.727
 6760SOL     OW22286   2.916  10.442   5.382
 6760SOL    HW122287   2.926  10.374   5.315
 6760SOL    HW222288   2.968  10.411   5.456
 6761SOL     OW22289   7.008   9.353   1.934
 6761SOL    HW122290   7.046   9.355   2.022
 6761SOL    HW222291   6.947   9.426   1.932
 6762SOL     OW22292   9.735   5.454   8.277
 6762SOL    HW122293   9.826   5.477   8.298
 6762SOL    HW222294   9.729   5.360   8.297
 6763SOL     OW22295   9.621   6.404   8.934
 6763SOL    HW122296   9.527   6.408   8.953
 6763SOL    HW222297   9.661   6.469   8.991
 6764SOL     OW22298   2.192   3.133   3.394
 6764SOL    HW122299   2.165   3.163   3.480
 6764SOL    HW222300   2.150   3.047   3.384
 6765SOL     OW22301   2.134   5.454   6.436
 6765SOL    HW122302   2.229   5.449   6.422
 6765SOL    HW222303   2.113   5.376   6.488
 6766SOL     OW22304   9.481   7.628   2.862
 6766SOL    HW122305   9.512   7.570   2.792
 6766SOL    HW222306   9.560   7.670   2.895
 6767SOL     OW22307   1.132   5.774   9.138
 6767SOL    HW122308   1.081   5.844   9.178
 6767SOL    HW222309   1.213   5.816   9.110
 6768SOL     OW22310   1.306   3.080   4.643
 6768SOL    HW122311   1.376   3.131   4.685
 6768SOL    HW222312   1.351   3.030   4.575
 6769SOL     OW22313   1.486   7.048  11.029
 6769SOL    HW122314   1.524   6.970  11.069
 6769SOL    HW222315   1.513   7.043  10.937
 6770SOL     OW22316  10.085   5.953   0.379
 6770SOL    HW122317  10.147   5.939   0.307
 6770SOL    HW222318  10.137   5.993   0.448
 6771SOL     OW22319   3.462   8.229   3.101
 6771SOL    HW122320   3.552   8.251   3.077
 6771SOL    HW222321   3.434   8.300   3.158
 6772SOL     OW22322   5.392   4.989   5.470
 6772SOL    HW122323   5.400   4.909   5.523
 6772SOL    HW222324   5.467   4.986   5.411
 6773SOL     OW22325   2.158   5.996   0.080
 6773SOL    HW122326   2.117   5.989   0.167
 6773SOL    HW222327   2.251   6.006   0.099
 6774SOL     OW22328   3.071   6.314  10.760
 6774SOL    HW122329   3.078   6.285  10.669
 6774SOL    HW222330   3.009   6.387  10.757
 6775SOL     OW22331  11.008   0.974   0.110
 6775SOL    HW122332  11.098   1.002   0.127
 6775SOL    HW222333  10.986   0.919   0.186
 6776SOL     OW22334   3.897  10.552   6.597
 6776SOL    HW122335   3.966  10.579   6.658
 6776SOL    HW222336   3.910  10.458   6.587
 6777SOL     OW22337   9.193   9.353   6.876
 6777SOL    HW122338   9.277   9.357   6.829
 6777SOL    HW222339   9.213   9.387   6.963
 6778SOL     OW22340   6.715   0.539  10.522
 6778SOL    HW122341   6.727   0.526  10.428
 6778SOL    HW222342   6.741   0.455  10.560
 6779SOL     OW22343   4.713   0.526   3.742
 6779SOL    HW122344   4.753   0.601   3.786
 6779SOL    HW222345   4.767   0.512   3.664
 6780SOL     OW22346   5.060   7.133   0.481
 6780SOL    HW122347   4.987   7.180   0.521
 6780SOL    HW222348   5.029   7.110   0.393
 6781SOL     OW22349   3.273   4.813   5.721
 6781SOL    HW122350   3.217   4.887   5.698
 6781SOL    HW222351   3.251   4.793   5.812
 6782SOL     OW22352  10.736   5.435   9.533
 6782SOL    HW122353  10.641   5.444   9.529
 6782SOL    HW222354  10.756   5.429   9.626
 6783SOL     OW22355   6.266   6.953   8.062
 6783SOL    HW122356   6.170   6.954   8.064
 6783SOL    HW222357   6.292   6.943   8.153
 6784SOL     OW22358   0.831   8.305   1.678
 6784SOL    HW122359   0.737   8.285   1.680
 6784SOL    HW222360   0.855   8.297   1.585
 6785SOL     OW22361   2.862   0.359   5.278
 6785SOL    HW122362   2.803   0.286   5.298
 6785SOL    HW222363   2.950   0.322   5.289
 6786SOL     OW22364   4.905   3.621   6.561
 6786SOL    HW122365   4.988   3.588   6.595
 6786SOL    HW222366   4.904   3.713   6.586
 6787SOL     OW22367   1.791   5.622   9.028
 6787SOL    HW122368   1.867   5.566   9.045
 6787SOL    HW222369   1.731   5.566   8.978
 6788SOL     OW22370   1.066   8.335   4.449
 6788SOL    HW122371   1.079   8.420   4.491
 6788SOL    HW222372   1.133   8.331   4.380
 6789SOL     OW22373   6.416   0.993   3.793
 6789SOL    HW122374   6.413   1.003   3.698
 6789SOL    HW222375   6.360   0.917   3.811
 6790SOL     OW22376   3.363   4.324   3.345
 6790SOL    HW122377   3.301   4.396   3.353
 6790SOL    HW222378   3.362   4.281   3.430
 6791SOL     OW22379  10.046   8.039   7.255
 6791SOL    HW122380  10.100   8.069   7.328
 6791SOL    HW222381  10.088   8.076   7.177
 6792SOL     OW22382   5.759   6.389   2.127
 6792SOL    HW122383   5.790   6.336   2.053
 6792SOL    HW222384   5.760   6.328   2.201
 6793SOL     OW22385   4.281  10.895   2.581
 6793SOL    HW122386   4.324  10.975   2.550
 6793SOL    HW222387   4.213  10.878   2.515
 6794SOL     OW22388   4.846   0.272   6.623
 6794SOL    HW122389   4.917   0.324   6.659
 6794SOL    HW222390   4.838   0.302   6.532
 6795SOL     OW22391   0.275  10.942   7.256
 6795SOL    HW122392   0.207  10.990   7.208
 6795SOL    HW222393   0.347  11.005   7.265
 6796SOL     OW22394   3.987   0.458   2.533
 6796SOL    HW122395   3.898   0.491   2.544
 6796SOL    HW222396   3.986   0.415   2.447
 6797SOL     OW22397   4.263   8.331   7.108
 6797SOL    HW122398   4.358   8.326   7.115
 6797SOL    HW222399   4.232   8.250   7.148
 6798SOL     OW22400   0.127   3.885   3.592
 6798SOL    HW122401   0.036   3.906   3.570
 6798SOL    HW222402   0.155   3.825   3.523
 6799SOL     OW22403   3.827   0.183   2.851
 6799SOL    HW122404   3.791   0.112   2.797
 6799SOL    HW222405   3.751   0.237   2.874
 6800SOL     OW22406   5.623   5.425   8.990
 6800SOL    HW122407   5.548   5.436   9.048
 6800SOL    HW222408   5.696   5.405   9.049
 6801SOL     OW22409   2.001   5.832   8.489
 6801SOL    HW122410   2.042   5.746   8.478
 6801SOL    HW222411   2.005   5.849   8.583
 6802SOL     OW22412   6.136   0.635   6.347
 6802SOL    HW122413   6.190   0.706   6.312
 6802SOL    HW222414   6.165   0.557   6.298
 6803SOL     OW22415   8.612   2.338   6.164
 6803SOL    HW122416   8.696   2.295   6.144
 6803SOL    HW222417   8.546   2.271   6.146
 6804SOL     OW22418  10.889   8.460   3.883
 6804SOL    HW122419  10.981   8.452   3.908
 6804SOL    HW222420  10.866   8.550   3.905
 6805SOL     OW22421   4.449   3.582  10.196
 6805SOL    HW122422   4.499   3.635  10.134
 6805SOL    HW222423   4.512   3.559  10.264
 6806SOL     OW22424   3.859   7.943   7.643
 6806SOL    HW122425   3.845   7.883   7.569
 6806SOL    HW222426   3.954   7.946   7.652
 6807SOL     OW22427   5.144   3.774   4.662
 6807SOL    HW122428   5.093   3.756   4.741
 6807SOL    HW222429   5.212   3.707   4.661
 6808SOL     OW22430   7.079   7.973   6.508
 6808SOL    HW122431   7.072   7.959   6.602
 6808SOL    HW222432   7.004   8.028   6.486
 6809SOL     OW22433  10.519   9.448   8.053
 6809SOL    HW122434  10.559   9.527   8.016
 6809SOL    HW222435  10.560   9.376   8.005
 6810SOL     OW22436   5.039  10.431   8.507
 6810SOL    HW122437   5.094  10.392   8.439
 6810SOL    HW222438   5.094  10.431   8.585
 6811SOL     OW22439   8.506   0.149   9.205
 6811SOL    HW122440   8.546   0.096   9.274
 6811SOL    HW222441   8.515   0.096   9.126
 6812SOL     OW22442   3.566   8.486   1.724
 6812SOL    HW122443   3.496   8.426   1.749
 6812SOL    HW222444   3.598   8.521   1.807
 6813SOL     OW22445   3.189   4.497   5.761
 6813SOL    HW122446   3.278   4.487   5.795
 6813SOL    HW222447   3.200   4.546   5.679
 6814SOL     OW22448   8.752  10.914   1.007
 6814SOL    HW122449   8.716  10.881   0.924
 6814SOL    HW222450   8.676  10.921   1.065
 6815SOL     OW22451   2.814   7.970   4.665
 6815SOL    HW122452   2.885   8.001   4.609
 6815SOL    HW222453   2.847   7.981   4.754
 6816SOL     OW22454   4.142   9.682   1.739
 6816SOL    HW122455   4.131   9.590   1.713
 6816SOL    HW222456   4.217   9.712   1.688
 6817SOL     OW22457   1.089  10.819   8.765
 6817SOL    HW122458   1.067  10.861   8.682
 6817SOL    HW222459   1.168  10.769   8.746
 6818SOL     OW22460   0.113   6.652   3.346
 6818SOL    HW122461   0.115   6.587   3.276
 6818SOL    HW222462   0.185   6.627   3.404
 6819SOL     OW22463   2.486   3.105   0.038
 6819SOL    HW122464   2.414   3.076   0.095
 6819SOL    HW222465   2.556   3.129   0.099
 6820SOL     OW22466   1.416   4.230   2.161
 6820SOL    HW122467   1.438   4.301   2.101
 6820SOL    HW222468   1.400   4.155   2.103
 6821SOL     OW22469   2.561   4.297   4.245
 6821SOL    HW122470   2.611   4.357   4.300
 6821SOL    HW222471   2.546   4.345   4.163
 6822SOL     OW22472   6.745  10.415   9.082
 6822SOL    HW122473   6.720  10.400   8.991
 6822SOL    HW222474   6.745  10.510   9.091
 6823SOL     OW22475   5.281   9.662   3.102
 6823SOL    HW122476   5.218   9.674   3.173
 6823SOL    HW222477   5.364   9.641   3.145
 6824SOL     OW22478   2.041   5.786   2.269
 6824SOL    HW122479   1.950   5.758   2.259
 6824SOL    HW222480   2.060   5.835   2.189
 6825SOL     OW22481   2.974   9.463   9.640
 6825SOL    HW122482   3.052   9.470   9.585
 6825SOL    HW222483   2.959   9.368   9.647
 6826SOL     OW22484   4.601   7.651   0.288
 6826SOL    HW122485   4.677   7.606   0.325
 6826SOL    HW222486   4.563   7.587   0.227
 6827SOL     OW22487   5.066  10.031   4.560
 6827SOL    HW122488   5.153  10.072   4.560
 6827SOL    HW222489   5.020  10.071   4.633
 6828SOL     OW22490  10.535   1.252   4.244
 6828SOL    HW122491  10.575   1.295   4.168
 6828SOL    HW222492  10.455   1.302   4.261
 6829SOL     OW22493   0.670   7.346   5.858
 6829SOL    HW122494   0.646   7.369   5.768
 6829SOL    HW222495   0.711   7.260   5.850
 6830SOL     OW22496   2.222  10.976   5.024
 6830SOL    HW122497   2.211  11.014   5.111
 6830SOL    HW222498   2.186  11.042   4.964
 6831SOL     OW22499   6.105   8.757   5.102
 6831SOL    HW122500   6.083   8.686   5.163
 6831SOL    HW222501   6.081   8.722   5.016
 6832SOL     OW22502   2.142   8.475   5.904
 6832SOL    HW122503   2.057   8.450   5.941
 6832SOL    HW222504   2.142   8.570   5.905
 6833SOL     OW22505   9.625   2.410   5.019
 6833SOL    HW122506   9.617   2.481   5.081
 6833SOL    HW222507   9.541   2.365   5.023
 6834SOL     OW22508   1.278   7.888   2.419
 6834SOL    HW122509   1.293   7.980   2.399
 6834SOL    HW222510   1.223   7.888   2.497
 6835SOL     OW22511  10.131  10.092   8.149
 6835SOL    HW122512  10.189  10.016   8.156
 6835SOL    HW222513  10.043  10.054   8.148
 6836SOL     OW22514   9.644   7.064   4.546
 6836SOL    HW122515   9.680   7.113   4.472
 6836SOL    HW222516   9.698   7.089   4.621
 6837SOL     OW22517  10.704   8.449   5.877
 6837SOL    HW122518  10.633   8.445   5.940
 6837SOL    HW222519  10.725   8.542   5.870
 6838SOL     OW22520   9.252   8.895   2.286
 6838SOL    HW122521   9.258   8.825   2.351
 6838SOL    HW222522   9.166   8.934   2.301
 6839SOL     OW22523   4.196   8.846   9.001
 6839SOL    HW122524   4.268   8.789   9.029
 6839SOL    HW222525   4.121   8.787   8.993
 6840SOL     OW22526   8.000   9.002   3.736
 6840SOL    HW122527   8.070   9.050   3.780
 6840SOL    HW222528   7.947   9.069   3.693
 6841SOL     OW22529   2.323   7.228   0.415
 6841SOL    HW122530   2.278   7.290   0.357
 6841SOL    HW222531   2.342   7.278   0.494
 6842SOL     OW22532   5.728   0.621   5.183
 6842SOL    HW122533   5.652   0.653   5.134
 6842SOL    HW222534   5.696   0.611   5.272
 6843SOL     OW22535   0.863   5.100   1.131
 6843SOL    HW122536   0.903   5.047   1.200
 6843SOL    HW222537   0.774   5.065   1.123
 6844SOL     OW22538  10.023   4.130   0.666
 6844SOL    HW122539   9.992   4.208   0.711
 6844SOL    HW222540  10.118   4.131   0.678
 6845SOL     OW22541   4.966   2.727   0.918
 6845SOL    HW122542   4.912   2.742   0.840
 6845SOL    HW222543   5.056   2.742   0.887
 6846SOL     OW22544  10.335   2.736   1.240
 6846SOL    HW122545  10.264   2.793   1.211
 6846SOL    HW222546  10.398   2.737   1.168
 6847SOL     OW22547   2.718   9.729   4.029
 6847SOL    HW122548   2.698   9.636   4.020
 6847SOL    HW222549   2.767   9.751   3.949
 6848SOL     OW22550  10.140   1.317   2.250
 6848SOL    HW122551  10.129   1.299   2.343
 6848SOL    HW222552  10.165   1.409   2.246
 6849SOL     OW22553  10.211   3.493   6.023
 6849SOL    HW122554  10.243   3.412   5.982
 6849SOL    HW222555  10.239   3.562   5.963
 6850SOL     OW22556   0.934  10.567  10.619
 6850SOL    HW122557   0.915  10.660  10.633
 6850SOL    HW222558   0.965  10.535  10.703
 6851SOL     OW22559   3.816   7.921   4.404
 6851SOL    HW122560   3.737   7.894   4.451
 6851SOL    HW222561   3.862   7.980   4.464
 6852SOL     OW22562   6.997   1.524   2.461
 6852SOL    HW122563   6.965   1.598   2.410
 6852SOL    HW222564   7.086   1.509   2.428
 6853SOL     OW22565   9.752   6.753   6.934
 6853SOL    HW122566   9.687   6.740   6.865
 6853SOL    HW222567   9.824   6.694   6.911
 6854SOL     OW22568   6.228   0.847   4.036
 6854SOL    HW122569   6.285   0.790   3.984
 6854SOL    HW222570   6.202   0.792   4.110
 6855SOL     OW22571  10.313   3.256   1.720
 6855SOL    HW122572  10.243   3.253   1.655
 6855SOL    HW222573  10.364   3.333   1.696
 6856SOL     OW22574   1.414   7.896   4.184
 6856SOL    HW122575   1.337   7.943   4.215
 6856SOL    HW222576   1.387   7.804   4.179
 6857SOL     OW22577   3.448   2.867   5.518
 6857SOL    HW122578   3.399   2.878   5.436
 6857SOL    HW222579   3.524   2.924   5.508
 6858SOL     OW22580  10.404   7.244   5.449
 6858SOL    HW122581  10.309   7.243   5.439
 6858SOL    HW222582  10.435   7.301   5.378
 6859SOL     OW22583   8.690   0.026   4.865
 6859SOL    HW122584   8.759   0.073   4.817
 6859SOL    HW222585   8.726  -0.062   4.878
 6860SOL     OW22586   9.289   6.247   5.338
 6860SOL    HW122587   9.286   6.217   5.247
 6860SOL    HW222588   9.316   6.338   5.332
 6861SOL     OW22589   2.683   0.299   9.539
 6861SOL    HW122590   2.592   0.283   9.562
 6861SOL    HW222591   2.718   0.212   9.519
 6862SOL     OW22592   4.785   7.321   3.760
 6862SOL    HW122593   4.778   7.416   3.764
 6862SOL    HW222594   4.726   7.295   3.689
 6863SOL     OW22595   1.549   6.315   0.448
 6863SOL    HW122596   1.501   6.271   0.518
 6863SOL    HW222597   1.605   6.378   0.493
 6864SOL     OW22598   3.760   7.808   8.608
 6864SOL    HW122599   3.774   7.716   8.583
 6864SOL    HW222600   3.704   7.803   8.685
 6865SOL     OW22601   5.335   7.437   7.536
 6865SOL    HW122602   5.241   7.445   7.549
 6865SOL    HW222603   5.344   7.369   7.469
 6866SOL     OW22604   8.519   4.223   6.657
 6866SOL    HW122605   8.612   4.246   6.652
 6866SOL    HW222606   8.501   4.214   6.750
 6867SOL     OW22607   7.483   5.706   1.252
 6867SOL    HW122608   7.437   5.624   1.269
 6867SOL    HW222609   7.575   5.680   1.243
 6868SOL     OW22610  10.423   8.115   1.817
 6868SOL    HW122611  10.341   8.067   1.804
 6868SOL    HW222612  10.407   8.170   1.893
 6869SOL     OW22613   1.494   3.817   1.537
 6869SOL    HW122614   1.525   3.884   1.476
 6869SOL    HW222615   1.544   3.738   1.514
 6870SOL     OW22616   1.477   0.472   3.219
 6870SOL    HW122617   1.401   0.432   3.176
 6870SOL    HW222618   1.523   0.398   3.259
 6871SOL     OW22619   3.597   9.446   1.781
 6871SOL    HW122620   3.529   9.502   1.817
 6871SOL    HW222621   3.553   9.394   1.714
 6872SOL     OW22622   5.098   8.660   2.790
 6872SOL    HW122623   5.006   8.672   2.812
 6872SOL    HW222624   5.120   8.734   2.734
 6873SOL     OW22625   8.529   9.398   3.123
 6873SOL    HW122626   8.519   9.435   3.210
 6873SOL    HW222627   8.493   9.464   3.064
 6874SOL     OW22628   1.860  11.011  10.319
 6874SOL    HW122629   1.888  10.937  10.265
 6874SOL    HW222630   1.939  11.037  10.367
 6875SOL     OW22631   4.093   9.677   0.632
 6875SOL    HW122632   4.094   9.767   0.600
 6875SOL    HW222633   4.020   9.636   0.585
 6876SOL     OW22634  10.434   7.264   3.461
 6876SOL    HW122635  10.529   7.270   3.449
 6876SOL    HW222636  10.412   7.338   3.517
 6877SOL     OW22637   8.228   9.175   3.802
 6877SOL    HW122638   8.165   9.221   3.858
 6877SOL    HW222639   8.309   9.225   3.811
 6878SOL     OW22640  10.214   4.704   7.411
 6878SOL    HW122641  10.170   4.639   7.355
 6878SOL    HW222642  10.172   4.695   7.496
 6879SOL     OW22643   8.491   0.904   1.847
 6879SOL    HW122644   8.534   0.988   1.859
 6879SOL    HW222645   8.450   0.885   1.931
 6880SOL     OW22646   3.765   6.969   9.827
 6880SOL    HW122647   3.722   7.054   9.837
 6880SOL    HW222648   3.766   6.932   9.915
 6881SOL     OW22649   0.693   1.572   3.828
 6881SOL    HW122650   0.615   1.521   3.849
 6881SOL    HW222651   0.713   1.619   3.908
 6882SOL     OW22652   9.799   0.892   5.603
 6882SOL    HW122653   9.762   0.846   5.678
 6882SOL    HW222654   9.850   0.825   5.557
 6883SOL     OW22655   2.901  10.182   3.573
 6883SOL    HW122656   2.933  10.093   3.558
 6883SOL    HW222657   2.898  10.221   3.485
 6884SOL     OW22658   1.269   9.876   7.629
 6884SOL    HW122659   1.206   9.804   7.626
 6884SOL    HW222660   1.333   9.849   7.695
 6885SOL     OW22661  10.593  10.605   3.578
 6885SOL    HW122662  10.526  10.673   3.573
 6885SOL    HW222663  10.676  10.652   3.574
 6886SOL     OW22664   0.148  10.694   5.109
 6886SOL    HW122665   0.132  10.787   5.127
 6886SOL    HW222666   0.063  10.660   5.082
 6887SOL     OW22667   4.179   4.903   4.194
 6887SOL    HW122668   4.270   4.887   4.218
 6887SOL    HW222669   4.184   4.941   4.106
 6888SOL     OW22670   2.415   4.155   5.237
 6888SOL    HW122671   2.387   4.201   5.158
 6888SOL    HW222672   2.459   4.076   5.204
 6889SOL     OW22673   8.926   8.915   3.398
 6889SOL    HW122674   9.014   8.907   3.436
 6889SOL    HW222675   8.939   8.904   3.304
 6890SOL     OW22676   4.713   8.216   7.506
 6890SOL    HW122677   4.660   8.290   7.478
 6890SOL    HW222678   4.651   8.143   7.513
 6891SOL     OW22679   4.018   9.818   7.163
 6891SOL    HW122680   4.052   9.737   7.125
 6891SOL    HW222681   3.927   9.798   7.185
 6892SOL     OW22682   1.564   9.059  10.980
 6892SOL    HW122683   1.590   9.138  11.027
 6892SOL    HW222684   1.474   9.076  10.952
 6893SOL     OW22685   2.092   6.928   7.319
 6893SOL    HW122686   2.158   6.858   7.316
 6893SOL    HW222687   2.085   6.957   7.228
 6894SOL     OW22688   5.232  10.078   4.177
 6894SOL    HW122689   5.182  10.049   4.101
 6894SOL    HW222690   5.313  10.027   4.172
 6895SOL     OW22691   1.243   5.979   0.285
 6895SOL    HW122692   1.301   5.946   0.353
 6895SOL    HW222693   1.302   6.007   0.215
 6896SOL     OW22694   0.697  10.703   5.332
 6896SOL    HW122695   0.680  10.615   5.364
 6896SOL    HW222696   0.790  10.703   5.310
 6897SOL     OW22697   9.016   4.929   4.742
 6897SOL    HW122698   9.009   4.910   4.835
 6897SOL    HW222699   8.932   4.902   4.705
 6898SOL     OW22700  10.826   5.532   8.431
 6898SOL    HW122701  10.751   5.552   8.375
 6898SOL    HW222702  10.874   5.464   8.382
 6899SOL     OW22703   7.315   0.698   6.485
 6899SOL    HW122704   7.322   0.793   6.485
 6899SOL    HW222705   7.224   0.680   6.462
 6900SOL     OW22706   2.931   8.974   7.458
 6900SOL    HW122707   2.984   8.942   7.384
 6900SOL    HW222708   2.978   9.051   7.490
 6901SOL     OW22709   9.624   6.787   6.128
 6901SOL    HW122710   9.589   6.734   6.199
 6901SOL    HW222711   9.713   6.754   6.115
 6902SOL     OW22712  10.575   5.416   2.364
 6902SOL    HW122713  10.485   5.445   2.377
 6902SOL    HW222714  10.624   5.496   2.346
 6903SOL     OW22715   5.577   8.122   4.104
 6903SOL    HW122716   5.618   8.122   4.190
 6903SOL    HW222717   5.588   8.032   4.072
 6904SOL     OW22718   6.398   8.220   5.873
 6904SOL    HW122719   6.351   8.298   5.843
 6904SOL    HW222720   6.350   8.147   5.834
 6905SOL     OW22721   4.900   4.495   2.939
 6905SOL    HW122722   4.885   4.562   3.005
 6905SOL    HW222723   4.879   4.538   2.856
 6906SOL     OW22724   9.861  10.774   3.978
 6906SOL    HW122725   9.808  10.830   3.921
 6906SOL    HW222726   9.947  10.817   3.980
 6907SOL     OW22727   2.078   0.682   3.951
 6907SOL    HW122728   2.050   0.595   3.921
 6907SOL    HW222729   2.047   0.742   3.883
 6908SOL     OW22730  10.463  10.936   6.835
 6908SOL    HW122731  10.468  10.956   6.928
 6908SOL    HW222732  10.385  10.983   6.804
 6909SOL     OW22733   0.617   7.693   4.855
 6909SOL    HW122734   0.671   7.710   4.778
 6909SOL    HW222735   0.666   7.626   4.904
 6910SOL     OW22736   8.978   1.895   3.663
 6910SOL    HW122737   8.890   1.880   3.698
 6910SOL    HW222738   9.002   1.982   3.694
 6911SOL     OW22739   2.618   7.690   3.205
 6911SOL    HW122740   2.548   7.704   3.141
 6911SOL    HW222741   2.698   7.715   3.159
 6912SOL     OW22742   1.704   5.964   4.152
 6912SOL    HW122743   1.685   6.032   4.216
 6912SOL    HW222744   1.797   5.976   4.130
 6913SOL     OW22745   4.819   7.797  10.694
 6913SOL    HW122746   4.810   7.804  10.789
 6913SOL    HW222747   4.909   7.765  10.681
 6914SOL     OW22748   0.330   5.772   4.482
 6914SOL    HW122749   0.270   5.707   4.444
 6914SOL    HW222750   0.301   5.855   4.444
 6915SOL     OW22751   0.374   9.624   7.136
 6915SOL    HW122752   0.437   9.645   7.067
 6915SOL    HW222753   0.405   9.672   7.212
 6916SOL     OW22754   1.414   5.307   1.498
 6916SOL    HW122755   1.501   5.335   1.469
 6916SOL    HW222756   1.369   5.282   1.417
 6917SOL     OW22757   0.317   8.564   3.986
 6917SOL    HW122758   0.269   8.549   3.904
 6917SOL    HW222759   0.382   8.494   3.988
 6918SOL     OW22760   1.169  10.464   6.443
 6918SOL    HW122761   1.189  10.448   6.535
 6918SOL    HW222762   1.213  10.546   6.422
 6919SOL     OW22763   1.445   3.574   0.145
 6919SOL    HW122764   1.530   3.539   0.117
 6919SOL    HW222765   1.396   3.497   0.174
 6920SOL     OW22766   0.559   7.271   7.585
 6920SOL    HW122767   0.559   7.205   7.654
 6920SOL    HW222768   0.632   7.329   7.607
 6921SOL     OW22769   7.477  10.717   1.742
 6921SOL    HW122770   7.514  10.804   1.758
 6921SOL    HW222771   7.547  10.656   1.765
 6922SOL     OW22772   9.980   9.724   9.020
 6922SOL    HW122773  10.022   9.641   8.994
 6922SOL    HW222774  10.030   9.754   9.096
 6923SOL     OW22775   6.399  10.093   6.992
 6923SOL    HW122776   6.429  10.004   6.974
 6923SOL    HW222777   6.306  10.092   6.971
 6924SOL     OW22778   9.564   0.333  10.520
 6924SOL    HW122779   9.592   0.352  10.430
 6924SOL    HW222780   9.502   0.261  10.510
 6925SOL     OW22781   3.229   7.210   7.791
 6925SOL    HW122782   3.320   7.205   7.820
 6925SOL    HW222783   3.234   7.254   7.706
 6926SOL     OW22784   2.473   7.468   4.654
 6926SOL    HW122785   2.547   7.481   4.713
 6926SOL    HW222786   2.448   7.556   4.627
 6927SOL     OW22787   5.383   5.467   9.150
 6927SOL    HW122788   5.289   5.482   9.160
 6927SOL    HW222789   5.419   5.553   9.129
 6928SOL     OW22790   0.081   0.579   1.702
 6928SOL    HW122791   0.090   0.506   1.764
 6928SOL    HW222792   0.030   0.645   1.749
 6929SOL     OW22793   0.271   2.615   5.119
 6929SOL    HW122794   0.200   2.676   5.140
 6929SOL    HW222795   0.330   2.619   5.194
 6930SOL     OW22796   0.406  11.035   1.060
 6930SOL    HW122797   0.501  11.028   1.064
 6930SOL    HW222798   0.375  10.945   1.068
 6931SOL     OW22799   9.505   0.845   5.051
 6931SOL    HW122800   9.592   0.857   5.011
 6931SOL    HW222801   9.523   0.815   5.140
 6932SOL     OW22802   3.742   9.252  10.324
 6932SOL    HW122803   3.744   9.246  10.419
 6932SOL    HW222804   3.794   9.177  10.294
 6933SOL     OW22805   1.136   9.151   5.495
 6933SOL    HW122806   1.079   9.165   5.419
 6933SOL    HW222807   1.122   9.228   5.550
 6934SOL     OW22808   2.883   2.956   7.140
 6934SOL    HW122809   2.956   2.909   7.098
 6934SOL    HW222810   2.807   2.935   7.085
 6935SOL     OW22811   6.213   5.811   9.514
 6935SOL    HW122812   6.154   5.738   9.534
 6935SOL    HW222813   6.162   5.868   9.456
 6936SOL     OW22814   9.166   9.451   3.702
 6936SOL    HW122815   9.083   9.405   3.716
 6936SOL    HW222816   9.233   9.386   3.725
 6937SOL     OW22817   3.534   0.598   9.958
 6937SOL    HW122818   3.480   0.621   9.882
 6937SOL    HW222819   3.474   0.602  10.032
 6938SOL     OW22820   1.407   9.660   3.839
 6938SOL    HW122821   1.351   9.675   3.763
 6938SOL    HW222822   1.469   9.733   3.838
 6939SOL     OW22823   3.021  10.721   4.266
 6939SOL    HW122824   3.082  10.723   4.192
 6939SOL    HW222825   2.934  10.729   4.226
 6940SOL     OW22826   2.061   2.509   8.091
 6940SOL    HW122827   2.096   2.499   8.179
 6940SOL    HW222828   2.138   2.516   8.035
 6941SOL     OW22829  11.036  10.890   8.745
 6941SOL    HW122830  10.987  10.831   8.688
 6941SOL    HW222831  11.127  10.859   8.738
 6942SOL     OW22832   5.069   3.079   4.050
 6942SOL    HW122833   5.021   3.149   4.093
 6942SOL    HW222834   5.069   3.006   4.112
 6943SOL     OW22835   3.676   4.836   2.133
 6943SOL    HW122836   3.639   4.913   2.090
 6943SOL    HW222837   3.672   4.767   2.066
 6944SOL     OW22838   1.901   1.403   6.941
 6944SOL    HW122839   1.892   1.333   6.876
 6944SOL    HW222840   1.921   1.481   6.889
 6945SOL     OW22841   2.076   1.855   8.571
 6945SOL    HW122842   1.988   1.874   8.539
 6945SOL    HW222843   2.084   1.905   8.652
 6946SOL     OW22844   3.623   0.015   5.472
 6946SOL    HW122845   3.664  -0.065   5.506
 6946SOL    HW222846   3.558  -0.017   5.409
 6947SOL     OW22847  10.106   9.457  10.752
 6947SOL    HW122848  10.100   9.529  10.815
 6947SOL    HW222849  10.114   9.500  10.667
 6948SOL     OW22850   4.819   7.953   7.364
 6948SOL    HW122851   4.769   7.904   7.429
 6948SOL    HW222852   4.800   7.908   7.281
 6949SOL     OW22853   9.952   0.503   5.857
 6949SOL    HW122854   9.862   0.471   5.860
 6949SOL    HW222855  10.004   0.429   5.889
 6950SOL     OW22856   1.511   2.802   1.095
 6950SOL    HW122857   1.539   2.792   1.004
 6950SOL    HW222858   1.531   2.717   1.135
 6951SOL     OW22859   8.162   8.108   9.095
 6951SOL    HW122860   8.115   8.088   9.176
 6951SOL    HW222861   8.155   8.028   9.043
 6952SOL     OW22862  10.393   4.125  10.005
 6952SOL    HW122863  10.477   4.084   9.981
 6952SOL    HW222864  10.327   4.069   9.965
 6953SOL     OW22865   4.218   7.243   2.038
 6953SOL    HW122866   4.292   7.192   2.070
 6953SOL    HW222867   4.152   7.236   2.107
 6954SOL     OW22868   1.626  10.761   4.705
 6954SOL    HW122869   1.591  10.695   4.645
 6954SOL    HW222870   1.594  10.844   4.670
 6955SOL     OW22871   3.465   4.634   6.817
 6955SOL    HW122872   3.511   4.601   6.894
 6955SOL    HW222873   3.403   4.698   6.851
 6956SOL     OW22874   8.021   6.651   2.414
 6956SOL    HW122875   7.982   6.711   2.350
 6956SOL    HW222876   8.043   6.573   2.363
 6957SOL     OW22877   0.706   8.352   6.145
 6957SOL    HW122878   0.794   8.343   6.109
 6957SOL    HW222879   0.655   8.285   6.100
 6958SOL     OW22880   0.648   8.398   5.124
 6958SOL    HW122881   0.588   8.365   5.057
 6958SOL    HW222882   0.594   8.455   5.179
 6959SOL     OW22883   2.702   0.468   4.177
 6959SOL    HW122884   2.751   0.529   4.122
 6959SOL    HW222885   2.769   0.420   4.225
 6960SOL     OW22886   2.048   9.674   5.195
 6960SOL    HW122887   1.981   9.660   5.128
 6960SOL    HW222888   2.007   9.733   5.258
 6961SOL     OW22889  10.884   8.291   4.990
 6961SOL    HW122890  10.828   8.317   5.063
 6961SOL    HW222891  10.935   8.369   4.970
 6962SOL     OW22892   3.138   7.988   5.298
 6962SOL    HW122893   3.064   8.048   5.292
 6962SOL    HW222894   3.193   8.009   5.222
 6963SOL     OW22895   5.868   2.392   0.307
 6963SOL    HW122896   5.782   2.434   0.308
 6963SOL    HW222897   5.878   2.355   0.394
 6964SOL     OW22898   4.333   2.181   4.475
 6964SOL    HW122899   4.338   2.107   4.536
 6964SOL    HW222900   4.417   2.180   4.429
 6965SOL     OW22901  11.074   1.130   6.478
 6965SOL    HW122902  11.034   1.145   6.563
 6965SOL    HW222903  11.008   1.081   6.429
 6966SOL     OW22904   1.872   8.104   4.325
 6966SOL    HW122905   1.798   8.069   4.275
 6966SOL    HW222906   1.864   8.064   4.411
 6967SOL     OW22907  10.525   3.087   7.789
 6967SOL    HW122908  10.550   3.007   7.742
 6967SOL    HW222909  10.566   3.158   7.739
 6968SOL     OW22910   0.128   2.414   3.169
 6968SOL    HW122911   0.189   2.342   3.183
 6968SOL    HW222912   0.155   2.482   3.230
 6969SOL     OW22913  10.316   9.775   7.261
 6969SOL    HW122914  10.290   9.807   7.347
 6969SOL    HW222915  10.239   9.729   7.227
 6970SOL     OW22916   1.692  10.324   8.000
 6970SOL    HW122917   1.739  10.369   8.070
 6970SOL    HW222918   1.600  10.344   8.015
 6971SOL     OW22919   8.219   3.797   9.646
 6971SOL    HW122920   8.142   3.832   9.601
 6971SOL    HW222921   8.215   3.835   9.733
 6972SOL     OW22922   0.513   6.738   1.070
 6972SOL    HW122923   0.449   6.782   1.014
 6972SOL    HW222924   0.586   6.718   1.011
 6973SOL     OW22925   4.709   0.682   1.051
 6973SOL    HW122926   4.637   0.727   1.096
 6973SOL    HW222927   4.788   0.728   1.080
 6974SOL     OW22928   3.009   3.705   8.614
 6974SOL    HW122929   3.063   3.635   8.577
 6974SOL    HW222930   2.941   3.659   8.663
 6975SOL     OW22931   9.358   6.072   8.935
 6975SOL    HW122932   9.378   6.000   8.874
 6975SOL    HW222933   9.382   6.038   9.021
 6976SOL     OW22934   3.545   8.914   7.375
 6976SOL    HW122935   3.625   8.874   7.408
 6976SOL    HW222936   3.540   8.998   7.419
 6977SOL     OW22937   0.306   0.991  10.565
 6977SOL    HW122938   0.219   0.970  10.600
 6977SOL    HW222939   0.333   1.070  10.612
 6978SOL     OW22940   0.888   5.339   8.092
 6978SOL    HW122941   0.808   5.287   8.101
 6978SOL    HW222942   0.958   5.274   8.083
 6979SOL     OW22943   9.604   7.828   5.684
 6979SOL    HW122944   9.577   7.796   5.598
 6979SOL    HW222945   9.628   7.749   5.732
 6980SOL     OW22946   8.926   9.236   5.826
 6980SOL    HW122947   8.900   9.320   5.863
 6980SOL    HW222948   8.965   9.188   5.899
 6981SOL     OW22949   9.365   6.311   6.082
 6981SOL    HW122950   9.457   6.333   6.066
 6981SOL    HW222951   9.354   6.224   6.042
 6982SOL     OW22952   2.062   2.737  10.759
 6982SOL    HW122953   2.009   2.805  10.800
 6982SOL    HW222954   2.140   2.782  10.727
 6983SOL     OW22955   0.803   7.599   2.702
 6983SOL    HW122956   0.789   7.523   2.759
 6983SOL    HW222957   0.830   7.669   2.761
 6984SOL     OW22958  10.755   3.000   4.810
 6984SOL    HW122959  10.711   2.928   4.855
 6984SOL    HW222960  10.749   3.074   4.870
 6985SOL     OW22961   5.662   8.573   9.803
 6985SOL    HW122962   5.686   8.621   9.882
 6985SOL    HW222963   5.568   8.557   9.812
 6986SOL     OW22964   8.329   6.778   6.021
 6986SOL    HW122965   8.300   6.850   6.077
 6986SOL    HW222966   8.413   6.751   6.058
 6987SOL     OW22967   5.295   8.836   2.362
 6987SOL    HW122968   5.357   8.848   2.290
 6987SOL    HW222969   5.229   8.776   2.326
 6988SOL     OW22970   0.054  10.483   6.836
 6988SOL    HW122971   0.041  10.575   6.814
 6988SOL    HW222972   0.015  10.473   6.923
 6989SOL     OW22973   3.748   9.074   6.465
 6989SOL    HW122974   3.701   8.996   6.434
 6989SOL    HW222975   3.832   9.071   6.419
 6990SOL     OW22976   2.741   5.245   8.784
 6990SOL    HW122977   2.825   5.214   8.818
 6990SOL    HW222978   2.719   5.183   8.714
 6991SOL     OW22979   2.834  10.344   8.542
 6991SOL    HW122980   2.812  10.433   8.569
 6991SOL    HW222981   2.929  10.346   8.527
 6992SOL     OW22982   2.437   1.955   5.489
 6992SOL    HW122983   2.420   1.861   5.488
 6992SOL    HW222984   2.377   1.990   5.554
 6993SOL     OW22985   0.603   9.161   1.926
 6993SOL    HW122986   0.693   9.161   1.959
 6993SOL    HW222987   0.570   9.248   1.945
 6994SOL     OW22988   2.374   7.299   9.153
 6994SOL    HW122989   2.302   7.282   9.092
 6994SOL    HW222990   2.452   7.306   9.097
 6995SOL     OW22991   0.794  10.923   4.022
 6995SOL    HW122992   0.715  10.875   4.046
 6995SOL    HW222993   0.762  11.007   3.990
 6996SOL     OW22994   4.817   2.378   0.546
 6996SOL    HW122995   4.826   2.464   0.586
 6996SOL    HW222996   4.779   2.323   0.614
 6997SOL     OW22997   4.765   6.333   5.278
 6997SOL    HW122998   4.856   6.318   5.303
 6997SOL    HW222999   4.714   6.285   5.343
 6998SOL     OW23000   1.729   6.651  10.423
 6998SOL    HW123001   1.756   6.664  10.513
 6998SOL    HW223002   1.785   6.709  10.372
 6999SOL     OW23003   4.950  10.609   4.812
 6999SOL    HW123004   4.956  10.514   4.807
 6999SOL    HW223005   5.014  10.634   4.879
 7000SOL     OW23006   4.418   0.238   5.386
 7000SOL    HW123007   4.480   0.175   5.349
 7000SOL    HW223008   4.368   0.187   5.450
 7001SOL     OW23009   7.937   9.836   7.590
 7001SOL    HW123010   7.848   9.824   7.622
 7001SOL    HW223011   7.975   9.748   7.593
 7002SOL     OW23012   5.947   8.235   5.998
 7002SOL    HW123013   5.874   8.176   6.018
 7002SOL    HW223014   5.998   8.188   5.931
 7003SOL     OW23015   0.627   9.833   5.807
 7003SOL    HW123016   0.702   9.826   5.748
 7003SOL    HW223017   0.657   9.795   5.889
 7004SOL     OW23018   2.184  10.331   2.743
 7004SOL    HW123019   2.128  10.400   2.708
 7004SOL    HW223020   2.158  10.322   2.834
 7005SOL     OW23021   5.846   9.218   0.306
 7005SOL    HW123022   5.807   9.253   0.226
 7005SOL    HW223023   5.854   9.124   0.289
 7006SOL     OW23024  10.997   7.741  10.806
 7006SOL    HW123025  10.937   7.686  10.755
 7006SOL    HW223026  10.957   7.746  10.892
 7007SOL     OW23027   6.175   0.016   2.004
 7007SOL    HW123028   6.225   0.006   2.085
 7007SOL    HW223029   6.235   0.061   1.944
 7008SOL     OW23030   1.306   1.873   9.529
 7008SOL    HW123031   1.211   1.879   9.535
 7008SOL    HW223032   1.323   1.780   9.513
 7009SOL     OW23033  10.992   4.339   2.522
 7009SOL    HW123034  10.968   4.313   2.433
 7009SOL    HW223035  11.052   4.412   2.510
 7010SOL     OW23036   1.195   9.730   0.123
 7010SOL    HW123037   1.112   9.696   0.090
 7010SOL    HW223038   1.211   9.680   0.203
 7011SOL     OW23039   3.547   4.987   5.126
 7011SOL    HW123040   3.611   4.934   5.174
 7011SOL    HW223041   3.551   5.073   5.167
 7012SOL     OW23042   5.505   8.202   5.239
 7012SOL    HW123043   5.541   8.250   5.313
 7012SOL    HW223044   5.530   8.111   5.255
 7013SOL     OW23045   8.986   2.406   1.389
 7013SOL    HW123046   9.021   2.448   1.310
 7013SOL    HW223047   9.016   2.461   1.461
 7014SOL     OW23048   1.285   6.167   1.707
 7014SOL    HW123049   1.202   6.213   1.699
 7014SOL    HW223050   1.343   6.211   1.644
 7015SOL     OW23051   3.432   3.391   9.849
 7015SOL    HW123052   3.509   3.386   9.906
 7015SOL    HW223053   3.424   3.483   9.827
 7016SOL     OW23054   9.912   2.327   7.521
 7016SOL    HW123055   9.952   2.339   7.434
 7016SOL    HW223056   9.818   2.330   7.504
 7017SOL     OW23057  10.723  10.173   0.344
 7017SOL    HW123058  10.686  10.255   0.376
 7017SOL    HW223059  10.673  10.153   0.265
 7018SOL     OW23060   1.203   2.933   8.416
 7018SOL    HW123061   1.138   2.952   8.348
 7018SOL    HW223062   1.188   2.841   8.439
 7019SOL     OW23063   2.423   1.631   2.818
 7019SOL    HW123064   2.419   1.536   2.830
 7019SOL    HW223065   2.470   1.663   2.895
 7020SOL     OW23066   4.135   0.941   5.321
 7020SOL    HW123067   4.105   0.993   5.246
 7020SOL    HW223068   4.078   0.864   5.321
 7021SOL     OW23069   0.666   5.288   6.578
 7021SOL    HW123070   0.732   5.352   6.553
 7021SOL    HW223071   0.695   5.255   6.663
 7022SOL     OW23072   8.772   0.166  10.938
 7022SOL    HW123073   8.711   0.108  10.892
 7022SOL    HW223074   8.746   0.160  11.030
 7023SOL     OW23075   8.566   9.778   6.881
 7023SOL    HW123076   8.563   9.786   6.976
 7023SOL    HW223077   8.650   9.736   6.863
 7024SOL     OW23078   9.970   8.672   2.622
 7024SOL    HW123079  10.055   8.643   2.656
 7024SOL    HW223080   9.919   8.694   2.700
 7025SOL     OW23081   1.502   1.645  10.384
 7025SOL    HW123082   1.479   1.676  10.471
 7025SOL    HW223083   1.511   1.724  10.331
 7026SOL     OW23084   1.980   8.450   1.777
 7026SOL    HW123085   2.050   8.401   1.732
 7026SOL    HW223086   1.899   8.414   1.739
 7027SOL     OW23087   7.555   7.897   8.406
 7027SOL    HW123088   7.637   7.855   8.379
 7027SOL    HW223089   7.579   7.947   8.484
 7028SOL     OW23090   6.781   7.997   0.868
 7028SOL    HW123091   6.856   8.054   0.850
 7028SOL    HW223092   6.705   8.050   0.846
 7029SOL     OW23093   2.305   8.698   4.799
 7029SOL    HW123094   2.339   8.619   4.842
 7029SOL    HW223095   2.371   8.719   4.733
 7030SOL     OW23096   9.874  10.139   5.503
 7030SOL    HW123097   9.936  10.211   5.495
 7030SOL    HW223098   9.837  10.148   5.591
 7031SOL     OW23099   1.138   5.068   7.153
 7031SOL    HW123100   1.179   4.984   7.175
 7031SOL    HW223101   1.063   5.074   7.212
 7032SOL     OW23102   2.891   9.605   7.843
 7032SOL    HW123103   2.915   9.587   7.752
 7032SOL    HW223104   2.965   9.655   7.878
 7033SOL     OW23105   7.936  10.442   3.852
 7033SOL    HW123106   7.873  10.486   3.794
 7033SOL    HW223107   7.884  10.413   3.926
 7034SOL     OW23108  10.834   0.465   7.218
 7034SOL    HW123109  10.809   0.374   7.199
 7034SOL    HW223110  10.928   0.468   7.199
 7035SOL     OW23111   3.732   7.499  10.270
 7035SOL    HW123112   3.695   7.413  10.248
 7035SOL    HW223113   3.674   7.562  10.227
 7036SOL     OW23114   1.413   5.762   6.536
 7036SOL    HW123115   1.412   5.820   6.460
 7036SOL    HW223116   1.498   5.718   6.532
 7037SOL     OW23117   4.597  10.758   5.625
 7037SOL    HW123118   4.600  10.784   5.533
 7037SOL    HW223119   4.661  10.687   5.632
 7038SOL     OW23120   4.763   7.492   4.182
 7038SOL    HW123121   4.785   7.448   4.264
 7038SOL    HW223122   4.709   7.566   4.208
 7039SOL     OW23123   2.029   9.694   2.034
 7039SOL    HW123124   2.039   9.787   2.015
 7039SOL    HW223125   2.109   9.671   2.082
 7040SOL     OW23126   7.227   2.506   7.463
 7040SOL    HW123127   7.135   2.484   7.473
 7040SOL    HW223128   7.227   2.599   7.442
 7041SOL     OW23129  10.177  10.960   6.666
 7041SOL    HW123130  10.166  10.944   6.759
 7041SOL    HW223131  10.106  11.020   6.643
 7042SOL     OW23132   0.109   5.717   1.355
 7042SOL    HW123133   0.114   5.657   1.280
 7042SOL    HW223134   0.165   5.677   1.421
 7043SOL     OW23135   4.001   5.862   7.192
 7043SOL    HW123136   4.058   5.900   7.125
 7043SOL    HW223137   3.958   5.937   7.233
 7044SOL     OW23138   8.606  10.763   9.931
 7044SOL    HW123139   8.657  10.708   9.990
 7044SOL    HW223140   8.560  10.824   9.988
 7045SOL     OW23141   0.702   8.337  10.754
 7045SOL    HW123142   0.627   8.317  10.697
 7045SOL    HW223143   0.768   8.272  10.730
 7046SOL     OW23144   1.540   9.729   4.907
 7046SOL    HW123145   1.577   9.813   4.882
 7046SOL    HW223146   1.542   9.677   4.826
 7047SOL     OW23147   4.686   9.053   6.350
 7047SOL    HW123148   4.712   8.967   6.384
 7047SOL    HW223149   4.630   9.090   6.418
 7048SOL     OW23150   0.465   5.206   9.313
 7048SOL    HW123151   0.503   5.226   9.398
 7048SOL    HW223152   0.422   5.287   9.285
 7049SOL     OW23153   8.483   0.998   9.092
 7049SOL    HW123154   8.540   0.924   9.071
 7049SOL    HW223155   8.416   0.997   9.023
 7050SOL     OW23156   3.555  10.941   5.854
 7050SOL    HW123157   3.503  11.003   5.905
 7050SOL    HW223158   3.569  10.867   5.913
 7051SOL     OW23159  11.025   2.364   9.300
 7051SOL    HW123160  11.066   2.279   9.317
 7051SOL    HW223161  11.052   2.386   9.211
 7052SOL     OW23162  10.240   2.024   0.419
 7052SOL    HW123163  10.248   2.018   0.514
 7052SOL    HW223164  10.321   1.983   0.386
 7053SOL     OW23165   1.572   2.630   2.275
 7053SOL    HW123166   1.611   2.641   2.361
 7053SOL    HW223167   1.566   2.535   2.263
 7054SOL     OW23168   5.509   3.931   8.853
 7054SOL    HW123169   5.556   3.863   8.805
 7054SOL    HW223170   5.530   3.914   8.945
 7055SOL     OW23171   0.270   9.249  10.722
 7055SOL    HW123172   0.317   9.276  10.643
 7055SOL    HW223173   0.282   9.321  10.783
 7056SOL     OW23174  10.353   8.707  11.001
 7056SOL    HW123175  10.402   8.787  11.018
 7056SOL    HW223176  10.282   8.707  11.065
 7057SOL     OW23177   9.379   7.648   4.447
 7057SOL    HW123178   9.395   7.707   4.520
 7057SOL    HW223179   9.285   7.633   4.448
 7058SOL     OW23180   7.988   5.743   7.114
 7058SOL    HW123181   8.046   5.672   7.087
 7058SOL    HW223182   8.033   5.784   7.188
 7059SOL     OW23183   8.938   0.159   4.728
 7059SOL    HW123184   8.885   0.165   4.648
 7059SOL    HW223185   9.026   0.139   4.696
 7060SOL     OW23186   0.063   9.785   6.792
 7060SOL    HW123187   0.037   9.872   6.762
 7060SOL    HW223188   0.028   9.725   6.726
 7061SOL     OW23189   0.005   0.049   0.314
 7061SOL    HW123190   0.057  -0.010   0.260
 7061SOL    HW223191   0.065   0.119   0.339
 7062SOL     OW23192   3.261   5.961   5.147
 7062SOL    HW123193   3.302   5.938   5.230
 7062SOL    HW223194   3.327   5.941   5.081
 7063SOL     OW23195   1.310   3.925   1.996
 7063SOL    HW123196   1.395   3.925   2.040
 7063SOL    HW223197   1.268   3.845   2.027
 7064SOL     OW23198   2.042   9.871   9.454
 7064SOL    HW123199   2.136   9.854   9.442
 7064SOL    HW223200   2.035   9.966   9.461
 7065SOL     OW23201   7.393   8.559   9.863
 7065SOL    HW123202   7.467   8.500   9.850
 7065SOL    HW223203   7.329   8.532   9.797
 7066SOL     OW23204   1.537   4.424   3.450
 7066SOL    HW123205   1.581   4.413   3.365
 7066SOL    HW223206   1.449   4.388   3.436
 7067SOL     OW23207   1.425   8.670   4.366
 7067SOL    HW123208   1.399   8.584   4.332
 7067SOL    HW223209   1.497   8.651   4.426
 7068SOL     OW23210   7.858   9.127   4.015
 7068SOL    HW123211   7.896   9.119   4.102
 7068SOL    HW223212   7.905   9.200   3.974
 7069SOL     OW23213   2.697  10.447   6.266
 7069SOL    HW123214   2.762  10.449   6.195
 7069SOL    HW223215   2.743  10.407   6.340
 7070SOL     OW23216   0.187   1.004   0.486
 7070SOL    HW123217   0.221   0.932   0.539
 7070SOL    HW223218   0.095   1.011   0.512
 7071SOL     OW23219   2.948   0.299   6.450
 7071SOL    HW123220   2.982   0.372   6.502
 7071SOL    HW223221   2.854   0.313   6.447
 7072SOL     OW23222   1.645   4.504   3.062
 7072SOL    HW123223   1.589   4.439   3.105
 7072SOL    HW223224   1.730   4.460   3.052
 7073SOL     OW23225   4.242   0.346   1.846
 7073SOL    HW123226   4.272   0.255   1.842
 7073SOL    HW223227   4.320   0.397   1.823
 7074SOL     OW23228   5.213   8.313  10.452
 7074SOL    HW123229   5.228   8.267  10.534
 7074SOL    HW223230   5.164   8.391  10.476
 7075SOL     OW23231   2.858   5.751   8.306
 7075SOL    HW123232   2.903   5.832   8.329
 7075SOL    HW223233   2.793   5.739   8.375
 7076SOL     OW23234   6.268   2.836   5.588
 7076SOL    HW123235   6.344   2.841   5.530
 7076SOL    HW223236   6.193   2.838   5.529
 7077SOL     OW23237   9.442   7.078   3.466
 7077SOL    HW123238   9.527   7.050   3.431
 7077SOL    HW223239   9.399   6.996   3.492
 7078SOL     OW23240   1.759   7.808   3.491
 7078SOL    HW123241   1.769   7.889   3.441
 7078SOL    HW223242   1.666   7.788   3.485
 7079SOL     OW23243   1.040   1.954   8.028
 7079SOL    HW123244   1.099   2.029   8.036
 7079SOL    HW223245   1.054   1.904   8.108
 7080SOL     OW23246  10.614   0.931   7.274
 7080SOL    HW123247  10.669   0.980   7.335
 7080SOL    HW223248  10.670   0.859   7.244
 7081SOL     OW23249  10.115   7.425   2.293
 7081SOL    HW123250  10.137   7.332   2.296
 7081SOL    HW223251  10.019   7.427   2.293
 7082SOL     OW23252   0.987   0.314   2.617
 7082SOL    HW123253   0.924   0.277   2.679
 7082SOL    HW223254   1.042   0.239   2.591
 7083SOL     OW23255   3.605   5.454   8.048
 7083SOL    HW123256   3.606   5.421   8.138
 7083SOL    HW223257   3.632   5.545   8.055
 7084SOL     OW23258   1.477   3.516   6.582
 7084SOL    HW123259   1.411   3.555   6.525
 7084SOL    HW223260   1.429   3.490   6.660
 7085SOL     OW23261   9.541   9.676   0.109
 7085SOL    HW123262   9.457   9.636   0.087
 7085SOL    HW223263   9.520   9.767   0.130
 7086SOL     OW23264   3.117   7.003   6.216
 7086SOL    HW123265   3.107   7.090   6.178
 7086SOL    HW223266   3.029   6.979   6.244
 7087SOL     OW23267   9.290   9.309   7.554
 7087SOL    HW123268   9.348   9.236   7.531
 7087SOL    HW223269   9.348   9.375   7.591
 7088SOL     OW23270   7.125   9.894   0.674
 7088SOL    HW123271   7.155   9.892   0.583
 7088SOL    HW223272   7.032   9.916   0.668
 7089SOL     OW23273   5.709   9.858   7.456
 7089SOL    HW123274   5.711   9.934   7.398
 7089SOL    HW223275   5.680   9.786   7.399
 7090SOL     OW23276   6.066   3.111   8.440
 7090SOL    HW123277   5.974   3.117   8.464
 7090SOL    HW223278   6.101   3.198   8.458
 7091SOL     OW23279   9.236   0.710   8.264
 7091SOL    HW123280   9.251   0.623   8.227
 7091SOL    HW223281   9.145   0.708   8.294
 7092SOL     OW23282   1.763   5.186   4.437
 7092SOL    HW123283   1.722   5.105   4.406
 7092SOL    HW223284   1.732   5.253   4.376
 7093SOL     OW23285  10.940   9.820   6.076
 7093SOL    HW123286  10.869   9.801   6.137
 7093SOL    HW223287  10.898   9.864   6.002
 7094SOL     OW23288   1.343   8.155   2.367
 7094SOL    HW123289   1.419   8.115   2.324
 7094SOL    HW223290   1.365   8.248   2.374
 7095SOL     OW23291   1.055   2.714   8.170
 7095SOL    HW123292   1.125   2.657   8.201
 7095SOL    HW223293   1.061   2.709   8.074
 7096SOL     OW23294   1.624   6.976   3.448
 7096SOL    HW123295   1.618   7.065   3.413
 7096SOL    HW223296   1.716   6.967   3.474
 7097SOL     OW23297  10.027   4.955  10.151
 7097SOL    HW123298  10.001   4.973  10.241
 7097SOL    HW223299   9.957   4.992  10.097
 7098SOL     OW23300   4.048   5.420   9.183
 7098SOL    HW123301   4.013   5.509   9.188
 7098SOL    HW223302   4.053   5.402   9.089
 7099SOL     OW23303   0.759   9.603   8.634
 7099SOL    HW123304   0.724   9.691   8.621
 7099SOL    HW223305   0.813   9.610   8.712
 7100SOL     OW23306   3.572   0.397   7.115
 7100SOL    HW123307   3.651   0.344   7.100
 7100SOL    HW223308   3.562   0.399   7.210
 7101SOL     OW23309   5.538  10.850   1.785
 7101SOL    HW123310   5.444  10.833   1.787
 7101SOL    HW223311   5.567  10.836   1.875
 7102SOL     OW23312   2.467   4.935  10.807
 7102SOL    HW123313   2.384   4.934  10.759
 7102SOL    HW223314   2.489   5.028  10.815
 7103SOL     OW23315   8.411   5.662  10.964
 7103SOL    HW123316   8.451   5.748  10.974
 7103SOL    HW223317   8.460   5.605  11.024
 7104SOL     OW23318   2.432   2.453   5.641
 7104SOL    HW123319   2.387   2.530   5.676
 7104SOL    HW223320   2.370   2.416   5.578
 7105SOL     OW23321   0.374  10.661   4.928
 7105SOL    HW123322   0.424  10.612   4.992
 7105SOL    HW223323   0.289  10.676   4.970
 7106SOL     OW23324   4.570   6.857   4.850
 7106SOL    HW123325   4.642   6.871   4.788
 7106SOL    HW223326   4.613   6.841   4.934
 7107SOL     OW23327  10.523   5.881   3.707
 7107SOL    HW123328  10.550   5.966   3.674
 7107SOL    HW223329  10.561   5.818   3.645
 7108SOL     OW23330   9.994   6.926   3.192
 7108SOL    HW123331  10.005   7.007   3.241
 7108SOL    HW223332   9.901   6.924   3.169
 7109SOL     OW23333  11.025   1.766  10.514
 7109SOL    HW123334  10.968   1.695  10.544
 7109SOL    HW223335  11.022   1.831  10.584
 7110SOL     OW23336  10.423   4.992   8.362
 7110SOL    HW123337  10.518   4.976   8.360
 7110SOL    HW223338  10.412   5.063   8.424
 7111SOL     OW23339   7.882   5.661   2.016
 7111SOL    HW123340   7.860   5.676   2.108
 7111SOL    HW223341   7.932   5.579   2.016
 7112SOL     OW23342   1.018   2.205   9.309
 7112SOL    HW123343   1.111   2.207   9.286
 7112SOL    HW223344   1.014   2.151   9.388
 7113SOL     OW23345  10.460   2.240   1.699
 7113SOL    HW123346  10.381   2.256   1.647
 7113SOL    HW223347  10.468   2.317   1.755
 7114SOL     OW23348   1.725   1.664   8.349
 7114SOL    HW123349   1.734   1.650   8.443
 7114SOL    HW223350   1.759   1.583   8.309
 7115SOL     OW23351   7.859   4.565   2.836
 7115SOL    HW123352   7.807   4.556   2.915
 7115SOL    HW223353   7.928   4.627   2.859
 7116SOL     OW23354   3.589   7.893   8.373
 7116SOL    HW123355   3.631   7.853   8.449
 7116SOL    HW223356   3.551   7.819   8.325
 7117SOL     OW23357   8.200   0.370   1.059
 7117SOL    HW123358   8.243   0.414   1.132
 7117SOL    HW223359   8.272   0.339   1.004
 7118SOL     OW23360   6.713   9.568   6.725
 7118SOL    HW123361   6.794   9.615   6.744
 7118SOL    HW223362   6.662   9.573   6.805
 7119SOL     OW23363   5.290  10.167   8.528
 7119SOL    HW123364   5.260  10.146   8.616
 7119SOL    HW223365   5.356  10.235   8.540
 7120SOL     OW23366   1.287   9.576   5.926
 7120SOL    HW123367   1.274   9.623   5.843
 7120SOL    HW223368   1.228   9.501   5.920
 7121SOL     OW23369   1.369   5.185   6.153
 7121SOL    HW123370   1.397   5.178   6.061
 7121SOL    HW223371   1.339   5.097   6.176
 7122SOL     OW23372   5.587   5.953   0.737
 7122SOL    HW123373   5.499   5.981   0.761
 7122SOL    HW223374   5.637   5.959   0.818
 7123SOL     OW23375   3.381   1.279   8.461
 7123SOL    HW123376   3.447   1.343   8.434
 7123SOL    HW223377   3.379   1.216   8.389
 7124SOL     OW23378   3.535   6.183   8.642
 7124SOL    HW123379   3.451   6.217   8.612
 7124SOL    HW223380   3.513   6.123   8.713
 7125SOL     OW23381   0.419   9.439   7.977
 7125SOL    HW123382   0.338   9.482   7.952
 7125SOL    HW223383   0.475   9.509   8.009
 7126SOL     OW23384   1.587   2.317   3.952
 7126SOL    HW123385   1.637   2.374   4.011
 7126SOL    HW223386   1.496   2.339   3.968
 7127SOL     OW23387   1.283  10.716   6.363
 7127SOL    HW123388   1.226  10.748   6.293
 7127SOL    HW223389   1.368  10.756   6.344
 7128SOL     OW23390   4.540   8.965   2.972
 7128SOL    HW123391   4.449   8.937   2.982
 7128SOL    HW223392   4.576   8.961   3.060
 7129SOL     OW23393   8.231   0.811   0.284
 7129SOL    HW123394   8.190   0.730   0.253
 7129SOL    HW223395   8.241   0.864   0.205
 7130SOL     OW23396  10.045   0.310   7.313
 7130SOL    HW123397  10.069   0.257   7.389
 7130SOL    HW223398  10.080   0.397   7.331
 7131SOL     OW23399   2.964   8.506   8.633
 7131SOL    HW123400   2.954   8.421   8.676
 7131SOL    HW223401   3.025   8.554   8.688
 7132SOL     OW23402   1.724   7.044   8.393
 7132SOL    HW123403   1.676   6.980   8.446
 7132SOL    HW223404   1.813   7.042   8.428
 7133SOL     OW23405   9.540   3.080  10.723
 7133SOL    HW123406   9.614   3.077  10.784
 7133SOL    HW223407   9.581   3.089  10.637
 7134SOL     OW23408   1.620   5.780   8.254
 7134SOL    HW123409   1.567   5.775   8.333
 7134SOL    HW223410   1.579   5.718   8.193
 7135SOL     OW23411   9.179   0.403   0.301
 7135SOL    HW123412   9.263   0.437   0.332
 7135SOL    HW223413   9.190   0.308   0.301
 7136SOL     OW23414   2.486   8.117   7.184
 7136SOL    HW123415   2.574   8.095   7.214
 7136SOL    HW223416   2.478   8.211   7.200
 7137SOL     OW23417   8.174   4.088   5.959
 7137SOL    HW123418   8.084   4.110   5.936
 7137SOL    HW223419   8.177   3.992   5.956
 7138SOL     OW23420   2.609   2.131   6.504
 7138SOL    HW123421   2.617   2.123   6.409
 7138SOL    HW223422   2.683   2.081   6.539
 7139SOL     OW23423   8.328   6.159   1.342
 7139SOL    HW123424   8.288   6.205   1.416
 7139SOL    HW223425   8.408   6.120   1.378
 7140SOL     OW23426   6.102   2.547   4.913
 7140SOL    HW123427   6.186   2.502   4.922
 7140SOL    HW223428   6.115   2.607   4.840
 7141SOL     OW23429   6.045  11.056   7.808
 7141SOL    HW123430   6.056  10.999   7.884
 7141SOL    HW223431   6.086  11.008   7.735
 7142SOL     OW23432   7.665   4.261   7.977
 7142SOL    HW123433   7.664   4.311   8.058
 7142SOL    HW223434   7.593   4.199   7.986
 7143SOL     OW23435   8.694  10.005   2.352
 7143SOL    HW123436   8.647  10.087   2.341
 7143SOL    HW223437   8.781  10.030   2.383
 7144SOL     OW23438   6.148  11.057   3.186
 7144SOL    HW123439   6.063  11.017   3.169
 7144SOL    HW223440   6.205  11.022   3.117
 7145SOL     OW23441   9.032   9.338  10.215
 7145SOL    HW123442   8.997   9.267  10.269
 7145SOL    HW223443   8.964   9.355  10.150
 7146SOL     OW23444   1.687  10.123   8.524
 7146SOL    HW123445   1.781  10.104   8.517
 7146SOL    HW223446   1.671  10.130   8.618
 7147SOL     OW23447   5.182   1.277   2.402
 7147SOL    HW123448   5.227   1.208   2.450
 7147SOL    HW223449   5.154   1.339   2.469
 7148SOL     OW23450   8.193   8.538   2.229
 7148SOL    HW123451   8.276   8.577   2.255
 7148SOL    HW223452   8.210   8.502   2.141
 7149SOL     OW23453   7.991   3.090   9.203
 7149SOL    HW123454   7.957   3.138   9.127
 7149SOL    HW223455   7.917   3.038   9.234
 7150SOL     OW23456   2.598   8.159   6.515
 7150SOL    HW123457   2.534   8.133   6.581
 7150SOL    HW223458   2.563   8.240   6.478
 7151SOL     OW23459   4.301   5.077   9.102
 7151SOL    HW123460   4.251   5.155   9.125
 7151SOL    HW223461   4.389   5.109   9.082
 7152SOL     OW23462   6.528   7.844   4.526
 7152SOL    HW123463   6.435   7.833   4.506
 7152SOL    HW223464   6.571   7.849   4.440
 7153SOL     OW23465   1.928   0.271   7.221
 7153SOL    HW123466   1.861   0.301   7.159
 7153SOL    HW223467   1.936   0.177   7.204
 7154SOL     OW23468   9.292   4.009   9.490
 7154SOL    HW123469   9.323   3.920   9.473
 7154SOL    HW223470   9.292   4.051   9.404
 7155SOL     OW23471   8.897   2.861   6.069
 7155SOL    HW123472   8.899   2.769   6.095
 7155SOL    HW223473   8.818   2.869   6.016
 7156SOL     OW23474   1.200   7.658  11.051
 7156SOL    HW123475   1.250   7.732  11.085
 7156SOL    HW223476   1.109   7.684  11.061
 7157SOL     OW23477   8.730   0.412   1.816
 7157SOL    HW123478   8.810   0.418   1.764
 7157SOL    HW223479   8.751   0.348   1.884
 7158SOL     OW23480   1.373   7.440   0.831
 7158SOL    HW123481   1.324   7.514   0.867
 7158SOL    HW223482   1.357   7.444   0.736
 7159SOL     OW23483   8.266   7.969   0.043
 7159SOL    HW123484   8.205   8.000  -0.023
 7159SOL    HW223485   8.246   7.875   0.053
 7160SOL     OW23486   7.742   4.038   0.715
 7160SOL    HW123487   7.650   4.038   0.688
 7160SOL    HW223488   7.754   3.953   0.758
 7161SOL     OW23489   5.474   6.509   3.794
 7161SOL    HW123490   5.420   6.460   3.731
 7161SOL    HW223491   5.417   6.524   3.869
 7162SOL     OW23492   5.372   7.676   4.901
 7162SOL    HW123493   5.444   7.612   4.899
 7162SOL    HW223494   5.415   7.761   4.900
 7163SOL     OW23495   8.208   3.174   7.845
 7163SOL    HW123496   8.295   3.213   7.854
 7163SOL    HW223497   8.224   3.090   7.802
 7164SOL     OW23498   1.100   1.533   5.776
 7164SOL    HW123499   1.187   1.494   5.765
 7164SOL    HW223500   1.115   1.611   5.828
 7165SOL     OW23501   7.362   1.455   8.003
 7165SOL    HW123502   7.396   1.535   7.963
 7165SOL    HW223503   7.376   1.387   7.936
 7166SOL     OW23504   5.954   8.675   7.965
 7166SOL    HW123505   6.013   8.685   8.039
 7166SOL    HW223506   6.004   8.709   7.890
 7167SOL     OW23507   0.139   0.580   5.213
 7167SOL    HW123508   0.193   0.569   5.135
 7167SOL    HW223509   0.189   0.638   5.270
 7168SOL     OW23510   8.210   8.898   9.395
 7168SOL    HW123511   8.235   8.897   9.302
 7168SOL    HW223512   8.117   8.920   9.394
 7169SOL     OW23513   0.692   1.481   5.444
 7169SOL    HW123514   0.723   1.491   5.534
 7169SOL    HW223515   0.770   1.495   5.390
 7170SOL     OW23516   9.599   5.262   1.440
 7170SOL    HW123517   9.538   5.336   1.436
 7170SOL    HW223518   9.663   5.287   1.506
 7171SOL     OW23519   1.498   4.917   7.445
 7171SOL    HW123520   1.512   5.004   7.407
 7171SOL    HW223521   1.547   4.858   7.387
 7172SOL     OW23522   8.935   8.825  10.188
 7172SOL    HW123523   8.849   8.844  10.150
 7172SOL    HW223524   8.997   8.870  10.131
 7173SOL     OW23525   6.657  10.226   7.685
 7173SOL    HW123526   6.740  10.271   7.667
 7173SOL    HW223527   6.676  10.134   7.667
 7174SOL     OW23528  10.702   1.377   4.603
 7174SOL    HW123529  10.759   1.321   4.549
 7174SOL    HW223530  10.689   1.327   4.684
 7175SOL     OW23531   1.539   6.536   6.301
 7175SOL    HW123532   1.540   6.447   6.264
 7175SOL    HW223533   1.608   6.535   6.367
 7176SOL     OW23534   9.763   1.684   3.933
 7176SOL    HW123535   9.785   1.625   3.860
 7176SOL    HW223536   9.672   1.708   3.917
 7177SOL     OW23537   7.869   6.700   6.319
 7177SOL    HW123538   7.906   6.706   6.231
 7177SOL    HW223539   7.794   6.641   6.309
 7178SOL     OW23540   7.774  10.044  10.365
 7178SOL    HW123541   7.729  10.055  10.448
 7178SOL    HW223542   7.758  10.125  10.317
 7179SOL     OW23543   7.601   5.194  10.203
 7179SOL    HW123544   7.547   5.119  10.227
 7179SOL    HW223545   7.687   5.156  10.185
 7180SOL     OW23546   1.340   9.253   2.430
 7180SOL    HW123547   1.259   9.210   2.400
 7180SOL    HW223548   1.368   9.306   2.355
 7181SOL     OW23549   2.388   7.040   2.647
 7181SOL    HW123550   2.389   7.084   2.732
 7181SOL    HW223551   2.319   7.084   2.598
 7182SOL     OW23552   4.245   4.850   9.253
 7182SOL    HW123553   4.275   4.923   9.199
 7182SOL    HW223554   4.184   4.889   9.315
 7183SOL     OW23555   2.936   6.718   7.922
 7183SOL    HW123556   2.878   6.769   7.866
 7183SOL    HW223557   3.022   6.758   7.909
 7184SOL     OW23558   4.989   7.260   4.177
 7184SOL    HW123559   5.054   7.190   4.180
 7184SOL    HW223560   4.921   7.226   4.118
 7185SOL     OW23561  10.335   3.761   2.520
 7185SOL    HW123562  10.293   3.715   2.592
 7185SOL    HW223563  10.355   3.848   2.555
 7186SOL     OW23564   5.020   9.010   7.515
 7186SOL    HW123565   4.977   8.936   7.472
 7186SOL    HW223566   5.003   8.997   7.608
 7187SOL     OW23567  10.842   5.914   1.618
 7187SOL    HW123568  10.902   5.913   1.543
 7187SOL    HW223569  10.758   5.940   1.581
 7188SOL     OW23570   1.451   6.278  10.983
 7188SOL    HW123571   1.414   6.248  11.066
 7188SOL    HW223572   1.500   6.357  11.006
 7189SOL     OW23573   1.456   5.923   6.294
 7189SOL    HW123574   1.515   5.952   6.363
 7189SOL    HW223575   1.383   5.985   6.296
 7190SOL     OW23576   7.037  11.030   7.984
 7190SOL    HW123577   6.945  11.005   7.979
 7190SOL    HW223578   7.036  11.126   7.979
 7191SOL     OW23579   6.216  10.337  10.664
 7191SOL    HW123580   6.185  10.426  10.650
 7191SOL    HW223581   6.275  10.343  10.739
 7192SOL     OW23582  10.459   2.639   7.601
 7192SOL    HW123583  10.371   2.615   7.630
 7192SOL    HW223584  10.500   2.555   7.578
 7193SOL     OW23585   8.447  10.755   3.629
 7193SOL    HW123586   8.541  10.759   3.611
 7193SOL    HW223587   8.441  10.745   3.724
 7194SOL     OW23588   0.246   4.189   8.002
 7194SOL    HW123589   0.285   4.256   8.058
 7194SOL    HW223590   0.317   4.159   7.946
 7195SOL     OW23591   1.022   6.943   8.088
 7195SOL    HW123592   1.078   6.916   8.015
 7195SOL    HW223593   1.079   6.938   8.165
 7196SOL     OW23594   1.041   8.922   7.044
 7196SOL    HW123595   0.959   8.898   7.088
 7196SOL    HW223596   1.021   9.004   6.999
 7197SOL     OW23597   4.858   8.319  11.066
 7197SOL    HW123598   4.906   8.312  11.148
 7197SOL    HW223599   4.792   8.386  11.082
 7198SOL     OW23600   2.029   8.655   6.200
 7198SOL    HW123601   2.037   8.726   6.263
 7198SOL    HW223602   1.980   8.693   6.127
 7199SOL     OW23603   0.717   7.366   8.874
 7199SOL    HW123604   0.681   7.284   8.909
 7199SOL    HW223605   0.779   7.395   8.941
 7200SOL     OW23606   2.044   5.264   0.105
 7200SOL    HW123607   2.100   5.325   0.057
 7200SOL    HW223608   2.023   5.310   0.187
 7201SOL     OW23609   5.412  11.101  10.584
 7201SOL    HW123610   5.483  11.145  10.538
 7201SOL    HW223611   5.404  11.016  10.540
 7202SOL     OW23612   8.711   9.831   9.272
 7202SOL    HW123613   8.717   9.786   9.187
 7202SOL    HW223614   8.734   9.764   9.336
 7203SOL     OW23615  10.070   0.998   6.659
 7203SOL    HW123616  10.111   0.937   6.597
 7203SOL    HW223617   9.987   1.022   6.618
 7204SOL     OW23618   5.551   1.222  10.393
 7204SOL    HW123619   5.506   1.301  10.362
 7204SOL    HW223620   5.568   1.171  10.313
 7205SOL     OW23621  10.782   8.968   0.863
 7205SOL    HW123622  10.862   8.941   0.818
 7205SOL    HW223623  10.747   9.039   0.809
 7206SOL     OW23624   9.794   3.833   7.366
 7206SOL    HW123625   9.743   3.764   7.324
 7206SOL    HW223626   9.864   3.786   7.412
 7207SOL     OW23627   0.223   5.928   3.764
 7207SOL    HW123628   0.213   5.988   3.690
 7207SOL    HW223629   0.209   5.982   3.841
 7208SOL     OW23630   0.069   8.036   7.410
 7208SOL    HW123631   0.135   8.101   7.433
 7208SOL    HW223632   0.004   8.084   7.359
 7209SOL     OW23633   0.175   7.883   0.877
 7209SOL    HW123634   0.208   7.793   0.877
 7209SOL    HW223635   0.149   7.899   0.967
 7210SOL     OW23636   9.574  11.084   9.505
 7210SOL    HW123637   9.592  11.113   9.415
 7210SOL    HW223638   9.576  10.989   9.500
 7211SOL     OW23639   7.602   7.299   3.022
 7211SOL    HW123640   7.669   7.280   3.088
 7211SOL    HW223641   7.520   7.270   3.062
 7212SOL     OW23642   2.829   3.592   4.743
 7212SOL    HW123643   2.747   3.630   4.774
 7212SOL    HW223644   2.884   3.587   4.821
 7213SOL     OW23645   7.875   8.721   9.367
 7213SOL    HW123646   7.931   8.691   9.295
 7213SOL    HW223647   7.872   8.816   9.357
 7214SOL     OW23648   0.186  10.896  10.831
 7214SOL    HW123649   0.191  10.819  10.887
 7214SOL    HW223650   0.094  10.898  10.802
 7215SOL     OW23651   4.449   0.696   0.246
 7215SOL    HW123652   4.425   0.783   0.277
 7215SOL    HW223653   4.533   0.708   0.201
 7216SOL     OW23654   0.586   6.288   4.381
 7216SOL    HW123655   0.522   6.253   4.443
 7216SOL    HW223656   0.662   6.310   4.434
 7217SOL     OW23657   1.761  10.073   9.630
 7217SOL    HW123658   1.684  10.076   9.687
 7217SOL    HW223659   1.740  10.006   9.565
 7218SOL     OW23660   4.056   3.047   9.529
 7218SOL    HW123661   3.981   2.990   9.546
 7218SOL    HW223662   4.089   3.018   9.443
 7219SOL     OW23663   9.970   4.840   8.944
 7219SOL    HW123664   9.887   4.882   8.924
 7219SOL    HW223665   9.946   4.761   8.993
 7220SOL     OW23666   1.486  10.713   9.377
 7220SOL    HW123667   1.542  10.761   9.315
 7220SOL    HW223668   1.403  10.761   9.376
 7221SOL     OW23669   0.025   9.577  10.606
 7221SOL    HW123670  -0.013   9.629  10.677
 7221SOL    HW223671   0.101   9.627  10.577
 7222SOL     OW23672   5.248   0.529   4.673
 7222SOL    HW123673   5.213   0.599   4.618
 7222SOL    HW223674   5.209   0.544   4.759
 7223SOL     OW23675  10.299  10.035   4.254
 7223SOL    HW123676  10.257   9.965   4.204
 7223SOL    HW223677  10.235  10.060   4.320
 7224SOL     OW23678   0.018   6.054   4.592
 7224SOL    HW123679   0.033   5.972   4.640
 7224SOL    HW223680  -0.039   6.028   4.519
 7225SOL     OW23681   2.778   2.075   8.062
 7225SOL    HW123682   2.734   2.105   7.982
 7225SOL    HW223683   2.707   2.050   8.121
 7226SOL     OW23684   5.803  10.359   6.376
 7226SOL    HW123685   5.745  10.335   6.303
 7226SOL    HW223686   5.891  10.342   6.342
 7227SOL     OW23687  10.741  10.686   9.528
 7227SOL    HW123688  10.744  10.781   9.538
 7227SOL    HW223689  10.684  10.656   9.598
 7228SOL     OW23690   1.826   5.733   9.550
 7228SOL    HW123691   1.831   5.827   9.532
 7228SOL    HW223692   1.737   5.709   9.525
 7229SOL     OW23693   1.642   0.296   5.226
 7229SOL    HW123694   1.604   0.225   5.173
 7229SOL    HW223695   1.636   0.373   5.170
 7230SOL     OW23696   2.051   1.762   3.194
 7230SOL    HW123697   2.041   1.854   3.218
 7230SOL    HW223698   2.019   1.757   3.104
 7231SOL     OW23699  10.882   9.748   5.254
 7231SOL    HW123700  10.967   9.739   5.297
 7231SOL    HW223701  10.903   9.748   5.160
 7232SOL     OW23702   8.814   3.601   8.338
 7232SOL    HW123703   8.893   3.651   8.360
 7232SOL    HW223704   8.845   3.531   8.280
 7233SOL     OW23705   7.632   9.774   7.578
 7233SOL    HW123706   7.649   9.695   7.526
 7233SOL    HW223707   7.603   9.839   7.514
 7234SOL     OW23708   1.192  10.743  10.377
 7234SOL    HW123709   1.197  10.735  10.472
 7234SOL    HW223710   1.105  10.709  10.355
 7235SOL     OW23711   3.209   0.877   3.408
 7235SOL    HW123712   3.117   0.876   3.380
 7235SOL    HW223713   3.255   0.926   3.339
 7236SOL     OW23714   6.528   2.601   3.246
 7236SOL    HW123715   6.619   2.627   3.229
 7236SOL    HW223716   6.518   2.517   3.200
 7237SOL     OW23717   0.711  10.657   4.331
 7237SOL    HW123718   0.645  10.701   4.277
 7237SOL    HW223719   0.749  10.591   4.273
 7238SOL     OW23720   1.782   0.064   6.057
 7238SOL    HW123721   1.782   0.070   6.152
 7238SOL    HW223722   1.694   0.092   6.031
 7239SOL     OW23723   2.331   6.357   4.526
 7239SOL    HW123724   2.418   6.351   4.565
 7239SOL    HW223725   2.271   6.337   4.598
 7240SOL     OW23726   2.077   3.013   9.903
 7240SOL    HW123727   2.040   3.023   9.815
 7240SOL    HW223728   2.110   2.923   9.905
 7241SOL     OW23729   2.299   0.827   7.271
 7241SOL    HW123730   2.281   0.815   7.177
 7241SOL    HW223731   2.253   0.754   7.313
 7242SOL     OW23732   6.415   7.099   9.596
 7242SOL    HW123733   6.357   7.171   9.621
 7242SOL    HW223734   6.356   7.025   9.579
 7243SOL     OW23735   6.469  10.150   1.893
 7243SOL    HW123736   6.468  10.147   1.797
 7243SOL    HW223737   6.380  10.126   1.919
 7244SOL     OW23738   4.573   5.239  10.517
 7244SOL    HW123739   4.574   5.146  10.494
 7244SOL    HW223740   4.654   5.274  10.480
 7245SOL     OW23741   0.882   1.311  11.065
 7245SOL    HW123742   0.899   1.253  11.139
 7245SOL    HW223743   0.931   1.271  10.993
 7246SOL     OW23744  10.176   7.832   5.784
 7246SOL    HW123745  10.166   7.897   5.714
 7246SOL    HW223746  10.137   7.752   5.748
 7247SOL     OW23747   0.924   9.869   7.600
 7247SOL    HW123748   0.981   9.800   7.635
 7247SOL    HW223749   0.909   9.928   7.673
 7248SOL     OW23750   0.008   2.795   6.285
 7248SOL    HW123751   0.008   2.753   6.371
 7248SOL    HW223752  -0.080   2.777   6.250
 7249SOL     OW23753   0.144   0.252  10.298
 7249SOL    HW123754   0.064   0.267  10.247
 7249SOL    HW223755   0.211   0.303  10.253
 7250SOL     OW23756   5.234   0.315   1.725
 7250SOL    HW123757   5.156   0.287   1.773
 7250SOL    HW223758   5.306   0.268   1.766
 7251SOL     OW23759   0.785   6.024   2.159
 7251SOL    HW123760   0.791   6.114   2.189
 7251SOL    HW223761   0.875   5.992   2.162
 7252SOL     OW23762  10.816   2.610   1.738
 7252SOL    HW123763  10.911   2.620   1.742
 7252SOL    HW223764  10.782   2.696   1.762
 7253SOL     OW23765   2.338   7.731   0.297
 7253SOL    HW123766   2.429   7.711   0.319
 7253SOL    HW223767   2.287   7.666   0.345
 7254SOL     OW23768   2.272   0.255   5.481
 7254SOL    HW123769   2.210   0.294   5.419
 7254SOL    HW223770   2.274   0.162   5.456
 7255SOL     OW23771   5.624   4.080  10.196
 7255SOL    HW123772   5.591   4.165  10.166
 7255SOL    HW223773   5.635   4.029  10.115
 7256SOL     OW23774  10.825   5.594   7.718
 7256SOL    HW123775  10.729   5.596   7.719
 7256SOL    HW223776  10.850   5.650   7.644
 7257SOL     OW23777   8.904   1.269   7.632
 7257SOL    HW123778   8.822   1.293   7.674
 7257SOL    HW223779   8.896   1.175   7.615
 7258SOL     OW23780   2.881   9.236   7.762
 7258SOL    HW123781   2.930   9.263   7.684
 7258SOL    HW223782   2.809   9.183   7.727
 7259SOL     OW23783  10.162   1.197   7.552
 7259SOL    HW123784  10.188   1.144   7.627
 7259SOL    HW223785  10.229   1.265   7.546
 7260SOL     OW23786   8.259   8.690   9.978
 7260SOL    HW123787   8.289   8.712   9.890
 7260SOL    HW223788   8.232   8.598   9.972
 7261SOL     OW23789   9.952   0.931   0.910
 7261SOL    HW123790  10.017   0.996   0.935
 7261SOL    HW223791   9.893   0.925   0.985
 7262SOL     OW23792   1.418   0.565   2.863
 7262SOL    HW123793   1.494   0.610   2.900
 7262SOL    HW223794   1.435   0.564   2.768
 7263SOL     OW23795   4.801   2.694   2.861
 7263SOL    HW123796   4.731   2.754   2.884
 7263SOL    HW223797   4.880   2.748   2.857
 7264SOL     OW23798   8.158   7.212   7.724
 7264SOL    HW123799   8.185   7.301   7.705
 7264SOL    HW223800   8.139   7.174   7.638
 7265SOL     OW23801   8.227  11.030  10.101
 7265SOL    HW123802   8.223  11.090  10.026
 7265SOL    HW223803   8.268  11.081  10.171
 7266SOL     OW23804   5.909   7.594   2.785
 7266SOL    HW123805   5.976   7.662   2.779
 7266SOL    HW223806   5.829   7.640   2.811
 7267SOL     OW23807   5.891   3.607  10.876
 7267SOL    HW123808   5.814   3.552  10.890
 7267SOL    HW223809   5.856   3.691  10.847
 7268SOL     OW23810   9.206   1.780   7.351
 7268SOL    HW123811   9.196   1.710   7.415
 7268SOL    HW223812   9.178   1.859   7.396
 7269SOL     OW23813   3.967   5.347   5.038
 7269SOL    HW123814   3.928   5.312   4.957
 7269SOL    HW223815   4.057   5.369   5.013
 7270SOL     OW23816   4.010   9.703   8.640
 7270SOL    HW123817   4.004   9.790   8.678
 7270SOL    HW223818   4.099   9.674   8.659
 7271SOL     OW23819   0.875   5.984   0.069
 7271SOL    HW123820   0.951   6.041   0.062
 7271SOL    HW223821   0.804   6.034   0.031
 7272SOL     OW23822   0.372   1.635   2.139
 7272SOL    HW123823   0.381   1.621   2.233
 7272SOL    HW223824   0.448   1.688   2.115
 7273SOL     OW23825   6.066   7.760   5.408
 7273SOL    HW123826   6.005   7.726   5.343
 7273SOL    HW223827   6.147   7.711   5.392
 7274SOL     OW23828   3.937   6.548   0.749
 7274SOL    HW123829   3.949   6.453   0.752
 7274SOL    HW223830   4.024   6.582   0.728
 7275SOL     OW23831   3.031   8.890   0.121
 7275SOL    HW123832   2.999   8.945   0.050
 7275SOL    HW223833   3.072   8.815   0.077
 7276SOL     OW23834   8.190   0.563   8.455
 7276SOL    HW123835   8.123   0.524   8.399
 7276SOL    HW223836   8.204   0.498   8.524
 7277SOL     OW23837   6.904   0.486   5.490
 7277SOL    HW123838   6.910   0.412   5.550
 7277SOL    HW223839   6.851   0.550   5.536
 7278SOL     OW23840   7.052  10.368   1.296
 7278SOL    HW123841   7.041  10.459   1.270
 7278SOL    HW223842   7.002  10.359   1.376
 7279SOL     OW23843   3.755   8.253   7.894
 7279SOL    HW123844   3.796   8.235   7.809
 7279SOL    HW223845   3.766   8.171   7.943
 7280SOL     OW23846   9.826   6.622   3.039
 7280SOL    HW123847   9.750   6.573   3.071
 7280SOL    HW223848   9.822   6.705   3.086
 7281SOL     OW23849   5.953   8.026   7.578
 7281SOL    HW123850   5.861   8.036   7.554
 7281SOL    HW223851   6.000   8.028   7.494
 7282SOL     OW23852   0.387   5.265   2.889
 7282SOL    HW123853   0.430   5.234   2.809
 7282SOL    HW223854   0.294   5.268   2.866
 7283SOL     OW23855   2.973   1.703   0.941
 7283SOL    HW123856   3.021   1.773   0.984
 7283SOL    HW223857   3.009   1.623   0.979
 7284SOL     OW23858   3.503   5.833  10.920
 7284SOL    HW123859   3.562   5.880  10.861
 7284SOL    HW223860   3.560   5.803  10.991
 7285SOL     OW23861   5.719   8.317   3.438
 7285SOL    HW123862   5.651   8.275   3.385
 7285SOL    HW223863   5.786   8.343   3.374
 7286SOL     OW23864   6.523   6.403   4.768
 7286SOL    HW123865   6.546   6.320   4.810
 7286SOL    HW223866   6.428   6.409   4.778
 7287SOL     OW23867   7.926  10.123   8.785
 7287SOL    HW123868   7.962  10.038   8.811
 7287SOL    HW223869   8.002  10.172   8.754
 7288SOL     OW23870   3.538   2.030   7.712
 7288SOL    HW123871   3.445   2.008   7.708
 7288SOL    HW223872   3.544   2.096   7.780
 7289SOL     OW23873   1.099   9.627   8.188
 7289SOL    HW123874   1.046   9.628   8.267
 7289SOL    HW223875   1.086   9.539   8.152
 7290SOL     OW23876   4.335  10.082   9.664
 7290SOL    HW123877   4.385  10.132   9.728
 7290SOL    HW223878   4.270  10.034   9.715
 7291SOL     OW23879   4.635   2.367   8.185
 7291SOL    HW123880   4.659   2.449   8.228
 7291SOL    HW223881   4.540   2.373   8.173
 7292SOL     OW23882   0.295  10.703   2.315
 7292SOL    HW123883   0.295  10.607   2.320
 7292SOL    HW223884   0.204  10.728   2.331
 7293SOL     OW23885   3.833   7.750   7.437
 7293SOL    HW123886   3.767   7.809   7.401
 7293SOL    HW223887   3.905   7.753   7.374
 7294SOL     OW23888   6.556   0.367   7.153
 7294SOL    HW123889   6.517   0.308   7.088
 7294SOL    HW223890   6.610   0.427   7.102
 7295SOL     OW23891   6.098   9.587   7.101
 7295SOL    HW123892   6.146   9.669   7.111
 7295SOL    HW223893   6.163   9.519   7.120
 7296SOL     OW23894   6.762   6.466  10.620
 7296SOL    HW123895   6.732   6.414  10.694
 7296SOL    HW223896   6.852   6.490  10.642
 7297SOL     OW23897   1.822   5.567   1.873
 7297SOL    HW123898   1.879   5.544   1.799
 7297SOL    HW223899   1.816   5.486   1.924
 7298SOL     OW23900   0.934   4.818   5.746
 7298SOL    HW123901   0.932   4.747   5.811
 7298SOL    HW223902   0.955   4.774   5.663
 7299SOL     OW23903   5.168   0.055   0.476
 7299SOL    HW123904   5.217   0.088   0.551
 7299SOL    HW223905   5.093   0.113   0.469
 7300SOL     OW23906   3.519   3.189   3.568
 7300SOL    HW123907   3.586   3.153   3.626
 7300SOL    HW223908   3.472   3.253   3.621
 7301SOL     OW23909   1.966   9.514   9.835
 7301SOL    HW123910   1.883   9.561   9.844
 7301SOL    HW223911   2.033   9.576   9.863
 7302SOL     OW23912  10.590   0.439   4.728
 7302SOL    HW123913  10.523   0.504   4.707
 7302SOL    HW223914  10.561   0.400   4.810
 7303SOL     OW23915   5.574  10.498   5.654
 7303SOL    HW123916   5.519  10.476   5.579
 7303SOL    HW223917   5.645  10.434   5.651
 7304SOL     OW23918   7.537   9.143   7.439
 7304SOL    HW123919   7.450   9.159   7.401
 7304SOL    HW223920   7.520   9.124   7.531
 7305SOL     OW23921   3.353   7.411  11.020
 7305SOL    HW123922   3.445   7.387  11.004
 7305SOL    HW223923   3.345   7.500  10.986
 7306SOL     OW23924   9.311   1.395   3.018
 7306SOL    HW123925   9.217   1.410   3.031
 7306SOL    HW223926   9.327   1.423   2.928
 7307SOL     OW23927   5.327   1.831   0.155
 7307SOL    HW123928   5.291   1.807   0.241
 7307SOL    HW223929   5.417   1.859   0.174
 7308SOL     OW23930   9.451   1.822   9.361
 7308SOL    HW123931   9.523   1.803   9.300
 7308SOL    HW223932   9.378   1.769   9.327
 7309SOL     OW23933   1.275   6.618   0.603
 7309SOL    HW123934   1.276   6.553   0.673
 7309SOL    HW223935   1.367   6.634   0.583
 7310SOL     OW23936   8.630   3.742   2.839
 7310SOL    HW123937   8.586   3.672   2.790
 7310SOL    HW223938   8.721   3.712   2.847
 7311SOL     OW23939  10.813   7.702   5.357
 7311SOL    HW123940  10.844   7.766   5.421
 7311SOL    HW223941  10.718   7.703   5.367
 7312SOL     OW23942   2.546   4.716   7.730
 7312SOL    HW123943   2.474   4.668   7.688
 7312SOL    HW223944   2.524   4.808   7.718
 7313SOL     OW23945   1.249  11.014   9.878
 7313SOL    HW123946   1.269  10.979   9.964
 7313SOL    HW223947   1.298  10.959   9.817
 7314SOL     OW23948  11.001  10.122  10.720
 7314SOL    HW123949  10.995  10.102  10.626
 7314SOL    HW223950  11.089  10.159  10.731
 7315SOL     OW23951   2.530   8.541   8.773
 7315SOL    HW123952   2.591   8.562   8.702
 7315SOL    HW223953   2.481   8.622   8.787
 7316SOL     OW23954   5.077   4.161   3.799
 7316SOL    HW123955   5.100   4.242   3.753
 7316SOL    HW223956   5.009   4.186   3.861
 7317SOL     OW23957   4.129   4.785   3.301
 7317SOL    HW123958   4.194   4.835   3.251
 7317SOL    HW223959   4.124   4.830   3.385
 7318SOL     OW23960   1.157  10.254  10.143
 7318SOL    HW123961   1.105  10.181  10.109
 7318SOL    HW223962   1.110  10.332  10.115
 7319SOL     OW23963   1.418   7.465   6.904
 7319SOL    HW123964   1.353   7.415   6.953
 7319SOL    HW223965   1.501   7.421   6.923
 7320SOL     OW23966   9.476   1.560   4.330
 7320SOL    HW123967   9.511   1.595   4.411
 7320SOL    HW223968   9.547   1.507   4.294
 7321SOL     OW23969   1.975   5.792   1.305
 7321SOL    HW123970   1.993   5.701   1.280
 7321SOL    HW223971   2.061   5.832   1.315
 7322SOL     OW23972   9.421   5.666   7.643
 7322SOL    HW123973   9.471   5.584   7.650
 7322SOL    HW223974   9.384   5.679   7.730
 7323SOL     OW23975   0.730   6.460  10.785
 7323SOL    HW123976   0.665   6.436  10.719
 7323SOL    HW223977   0.760   6.547  10.759
 7324SOL     OW23978   6.968   9.283   6.001
 7324SOL    HW123979   6.906   9.213   5.981
 7324SOL    HW223980   6.992   9.319   5.915
 7325SOL     OW23981   0.392  10.850   1.593
 7325SOL    HW123982   0.339  10.782   1.551
 7325SOL    HW223983   0.405  10.915   1.524
 7326SOL     OW23984   5.702   7.907   8.942
 7326SOL    HW123985   5.785   7.954   8.937
 7326SOL    HW223986   5.727   7.814   8.942
 7327SOL     OW23987   3.069   6.604   3.068
 7327SOL    HW123988   2.994   6.640   3.115
 7327SOL    HW223989   3.056   6.509   3.071
 7328SOL     OW23990   3.208  10.627   2.314
 7328SOL    HW123991   3.146  10.558   2.291
 7328SOL    HW223992   3.294  10.587   2.305
 7329SOL     OW23993   0.224   0.235   0.321
 7329SOL    HW123994   0.317   0.245   0.303
 7329SOL    HW223995   0.209   0.286   0.400
 7330SOL     OW23996   1.194   5.897   9.393
 7330SOL    HW123997   1.247   5.819   9.410
 7330SOL    HW223998   1.161   5.923   9.479
 7331SOL     OW23999   5.497   8.668   4.887
 7331SOL    HW124000   5.456   8.656   4.972
 7331SOL    HW224001   5.432   8.636   4.824
 7332SOL     OW24002   9.217   0.664   9.657
 7332SOL    HW124003   9.183   0.730   9.597
 7332SOL    HW224004   9.213   0.704   9.743
 7333SOL     OW24005   1.370   6.919   2.532
 7333SOL    HW124006   1.437   6.983   2.510
 7333SOL    HW224007   1.392   6.891   2.621
 7334SOL     OW24008   2.426   3.579   8.355
 7334SOL    HW124009   2.426   3.487   8.329
 7334SOL    HW224010   2.364   3.583   8.428
 7335SOL     OW24011   5.326   8.834  10.854
 7335SOL    HW124012   5.390   8.867  10.790
 7335SOL    HW224013   5.350   8.876  10.936
 7336SOL     OW24014   0.365   4.951   1.025
 7336SOL    HW124015   0.292   4.928   0.967
 7336SOL    HW224016   0.329   5.019   1.082
 7337SOL     OW24017   9.894   5.046   3.569
 7337SOL    HW124018   9.886   5.066   3.475
 7337SOL    HW224019   9.988   5.032   3.582
 7338SOL     OW24020   6.556   8.866   3.281
 7338SOL    HW124021   6.632   8.864   3.222
 7338SOL    HW224022   6.486   8.902   3.227
 7339SOL     OW24023   1.475   4.826   9.284
 7339SOL    HW124024   1.542   4.781   9.336
 7339SOL    HW224025   1.397   4.771   9.293
 7340SOL     OW24026   9.821   2.126   0.004
 7340SOL    HW124027   9.892   2.064   0.021
 7340SOL    HW224028   9.782   2.142   0.090
 7341SOL     OW24029   7.664   3.596   9.784
 7341SOL    HW124030   7.643   3.624   9.873
 7341SOL    HW224031   7.750   3.635   9.766
 7342SOL     OW24032   3.503   0.603   8.365
 7342SOL    HW124033   3.412   0.588   8.339
 7342SOL    HW224034   3.545   0.517   8.356
 7343SOL     OW24035   2.697   7.145  10.681
 7343SOL    HW124036   2.705   7.218  10.742
 7343SOL    HW224037   2.699   7.185  10.594
 7344SOL     OW24038   2.946   6.050   2.419
 7344SOL    HW124039   2.873   6.017   2.471
 7344SOL    HW224040   2.956   5.985   2.349
 7345SOL     OW24041   2.736   0.945   1.562
 7345SOL    HW124042   2.670   0.938   1.492
 7345SOL    HW224043   2.695   0.903   1.638
 7346SOL     OW24044   1.792   9.727   9.905
 7346SOL    HW124045   1.849   9.794   9.867
 7346SOL    HW224046   1.766   9.762   9.990
 7347SOL     OW24047   2.010   3.167  10.935
 7347SOL    HW124048   2.014   3.085  10.984
 7347SOL    HW224049   2.101   3.196  10.930
 7348SOL     OW24050   2.720   8.150   8.780
 7348SOL    HW124051   2.809   8.184   8.769
 7348SOL    HW224052   2.718   8.116   8.869
 7349SOL     OW24053   8.539  10.311   1.488
 7349SOL    HW124054   8.465  10.359   1.524
 7349SOL    HW224055   8.514  10.292   1.397
 7350SOL     OW24056   0.291  10.388   5.179
 7350SOL    HW124057   0.358  10.452   5.202
 7350SOL    HW224058   0.235  10.383   5.256
 7351SOL     OW24059   8.103  10.596   5.056
 7351SOL    HW124060   8.102  10.585   5.151
 7351SOL    HW224061   8.041  10.531   5.023
 7352SOL     OW24062   9.875   6.492   6.622
 7352SOL    HW124063   9.865   6.523   6.532
 7352SOL    HW224064   9.789   6.456   6.644
 7353SOL     OW24065   8.874   7.315   5.072
 7353SOL    HW124066   8.895   7.265   5.151
 7353SOL    HW224067   8.882   7.251   5.000
 7354SOL     OW24068   5.435   7.849   0.551
 7354SOL    HW124069   5.470   7.819   0.467
 7354SOL    HW224070   5.430   7.944   0.542
 7355SOL     OW24071  10.774   1.679  10.272
 7355SOL    HW124072  10.710   1.678  10.200
 7355SOL    HW224073  10.775   1.769  10.302
 7356SOL     OW24074   0.794   1.107   1.272
 7356SOL    HW124075   0.820   1.016   1.255
 7356SOL    HW224076   0.722   1.123   1.211
 7357SOL     OW24077   5.694   6.937   8.114
 7357SOL    HW124078   5.648   7.020   8.119
 7357SOL    HW224079   5.639   6.882   8.057
 7358SOL     OW24080   3.053   6.107  11.042
 7358SOL    HW124081   3.054   6.170  10.970
 7358SOL    HW224082   3.023   6.157  11.117
 7359SOL     OW24083   9.383   0.922   0.610
 7359SOL    HW124084   9.402   0.921   0.703
 7359SOL    HW224085   9.451   0.867   0.571
 7360SOL     OW24086   0.767   3.919   1.604
 7360SOL    HW124087   0.851   3.965   1.599
 7360SOL    HW224088   0.769   3.859   1.529
 7361SOL     OW24089   1.077   8.721   3.735
 7361SOL    HW124090   1.051   8.686   3.650
 7361SOL    HW224091   1.008   8.783   3.757
 7362SOL     OW24092   2.953   1.598   2.946
 7362SOL    HW124093   2.990   1.664   3.004
 7362SOL    HW224094   2.965   1.634   2.858
 7363SOL     OW24095   8.918   4.667   9.089
 7363SOL    HW124096   8.856   4.616   9.140
 7363SOL    HW224097   8.971   4.713   9.154
 7364SOL     OW24098   0.964   1.229   4.469
 7364SOL    HW124099   0.876   1.223   4.432
 7364SOL    HW224100   0.967   1.314   4.513
 7365SOL     OW24101   1.414   1.173   7.370
 7365SOL    HW124102   1.442   1.259   7.339
 7365SOL    HW224103   1.421   1.116   7.293
 7366SOL     OW24104   2.072   8.714   7.999
 7366SOL    HW124105   2.168   8.721   8.001
 7366SOL    HW224106   2.042   8.771   8.070
 7367SOL     OW24107   1.629   6.330   1.253
 7367SOL    HW124108   1.664   6.255   1.301
 7367SOL    HW224109   1.631   6.302   1.161
 7368SOL     OW24110   0.864  10.919   0.005
 7368SOL    HW124111   0.824  10.910   0.092
 7368SOL    HW224112   0.913  11.001   0.010
 7369SOL     OW24113   0.117   7.029   2.085
 7369SOL    HW124114   0.172   7.081   2.143
 7369SOL    HW224115   0.059   7.092   2.043
 7370SOL     OW24116   3.931   7.738   9.235
 7370SOL    HW124117   3.882   7.816   9.261
 7370SOL    HW224118   3.929   7.739   9.139
 7371SOL     OW24119   2.795   5.224   1.580
 7371SOL    HW124120   2.887   5.244   1.562
 7371SOL    HW224121   2.796   5.131   1.605
 7372SOL     OW24122   1.054  10.483   1.015
 7372SOL    HW124123   1.083  10.392   1.015
 7372SOL    HW224124   1.094  10.520   0.936
 7373SOL     OW24125   3.602   5.551   7.080
 7373SOL    HW124126   3.629   5.460   7.067
 7373SOL    HW224127   3.669   5.588   7.137
 7374SOL     OW24128  10.451   1.348   2.743
 7374SOL    HW124129  10.476   1.438   2.761
 7374SOL    HW224130  10.534   1.301   2.737
 7375SOL     OW24131   5.272   9.835   9.864
 7375SOL    HW124132   5.269   9.914   9.811
 7375SOL    HW224133   5.359   9.799   9.848
 7376SOL     OW24134   7.567   9.742   5.451
 7376SOL    HW124135   7.472   9.733   5.449
 7376SOL    HW224136   7.583   9.835   5.436
 7377SOL     OW24137   9.857  10.503   9.674
 7377SOL    HW124138   9.854  10.590   9.713
 7377SOL    HW224139   9.832  10.444   9.745
 7378SOL     OW24140   7.411   1.059   5.917
 7378SOL    HW124141   7.397   1.153   5.911
 7378SOL    HW224142   7.373   1.034   6.001
 7379SOL     OW24143   1.282   1.201   1.301
 7379SOL    HW124144   1.263   1.112   1.331
 7379SOL    HW224145   1.366   1.193   1.256
 7380SOL     OW24146   9.534   5.623   1.162
 7380SOL    HW124147   9.503   5.534   1.179
 7380SOL    HW224148   9.585   5.646   1.239
 7381SOL     OW24149  10.577   1.780  10.542
 7381SOL    HW124150  10.613   1.718  10.606
 7381SOL    HW224151  10.506   1.731  10.500
 7382SOL     OW24152   2.376   0.910   0.033
 7382SOL    HW124153   2.449   0.850   0.017
 7382SOL    HW224154   2.344   0.933  -0.054
 7383SOL     OW24155   3.688  10.439   7.979
 7383SOL    HW124156   3.640  10.357   7.965
 7383SOL    HW224157   3.726  10.430   8.066
 7384SOL     OW24158  10.184   4.910   7.657
 7384SOL    HW124159  10.142   4.958   7.586
 7384SOL    HW224160  10.277   4.930   7.648
 7385SOL     OW24161   2.120   3.009   2.428
 7385SOL    HW124162   2.028   3.032   2.417
 7385SOL    HW224163   2.164   3.050   2.353
 7386SOL     OW24164   4.202   1.268   5.076
 7386SOL    HW124165   4.118   1.313   5.066
 7386SOL    HW224166   4.264   1.337   5.100
 7387SOL     OW24167   0.854   1.318   9.213
 7387SOL    HW124168   0.892   1.340   9.298
 7387SOL    HW224169   0.896   1.378   9.151
 7388SOL     OW24170   1.124  10.444   7.909
 7388SOL    HW124171   1.202  10.500   7.910
 7388SOL    HW224172   1.104  10.433   7.816
 7389SOL     OW24173   8.827  10.019   0.854
 7389SOL    HW124174   8.753   9.958   0.852
 7389SOL    HW224175   8.810  10.075   0.929
 7390SOL     OW24176   2.458   9.271   0.086
 7390SOL    HW124177   2.515   9.216   0.032
 7390SOL    HW224178   2.371   9.233   0.075
 7391SOL     OW24179   4.344   9.350   9.516
 7391SOL    HW124180   4.332   9.417   9.449
 7391SOL    HW224181   4.433   9.317   9.501
 7392SOL     OW24182   0.392   6.351   8.614
 7392SOL    HW124183   0.310   6.341   8.565
 7392SOL    HW224184   0.381   6.432   8.663
 7393SOL     OW24185   3.402   0.488   7.667
 7393SOL    HW124186   3.468   0.421   7.685
 7393SOL    HW224187   3.362   0.460   7.584
 7394SOL     OW24188   8.945   4.956   1.086
 7394SOL    HW124189   8.887   5.031   1.075
 7394SOL    HW224190   8.954   4.946   1.180
 7395SOL     OW24191   7.254   6.847   9.969
 7395SOL    HW124192   7.186   6.801   9.919
 7395SOL    HW224193   7.238   6.940   9.952
 7396SOL     OW24194   3.376   4.720  10.287
 7396SOL    HW124195   3.294   4.768  10.287
 7396SOL    HW224196   3.350   4.628  10.280
 7397SOL     OW24197   3.871   8.334   7.555
 7397SOL    HW124198   3.825   8.266   7.505
 7397SOL    HW224199   3.924   8.380   7.489
 7398SOL     OW24200   5.644   3.750  10.791
 7398SOL    HW124201   5.597   3.669  10.769
 7398SOL    HW224202   5.610   3.815  10.729
 7399SOL     OW24203   3.425   5.766   7.751
 7399SOL    HW124204   3.357   5.730   7.807
 7399SOL    HW224205   3.453   5.691   7.698
 7400SOL     OW24206   9.296   1.595  10.300
 7400SOL    HW124207   9.253   1.608  10.215
 7400SOL    HW224208   9.386   1.625  10.286
 7401SOL     OW24209   1.628  10.482   9.962
 7401SOL    HW124210   1.541  10.447   9.943
 7401SOL    HW224211   1.616  10.535  10.040
 7402SOL     OW24212   8.491   8.293   1.409
 7402SOL    HW124213   8.549   8.347   1.355
 7402SOL    HW224214   8.484   8.210   1.360
 7403SOL     OW24215   6.594  10.175  10.799
 7403SOL    HW124216   6.529  10.241  10.821
 7403SOL    HW224217   6.544  10.103  10.761
 7404SOL     OW24218  10.717   9.443   6.729
 7404SOL    HW124219  10.752   9.510   6.787
 7404SOL    HW224220  10.622   9.455   6.732
 7405SOL     OW24221   3.766   9.790   9.554
 7405SOL    HW124222   3.707   9.841   9.609
 7405SOL    HW224223   3.803   9.853   9.493
 7406SOL     OW24224   3.828   4.362   8.689
 7406SOL    HW124225   3.817   4.292   8.624
 7406SOL    HW224226   3.769   4.431   8.659
 7407SOL     OW24227  10.738   1.251   1.803
 7407SOL    HW124228  10.690   1.174   1.834
 7407SOL    HW224229  10.817   1.215   1.762
 7408SOL     OW24230   1.705   6.667   5.884
 7408SOL    HW124231   1.682   6.758   5.866
 7408SOL    HW224232   1.663   6.617   5.814
 7409SOL     OW24233   8.406  10.209   0.694
 7409SOL    HW124234   8.437  10.269   0.626
 7409SOL    HW224235   8.315  10.192   0.671
 7410SOL     OW24236   3.188   2.919   0.416
 7410SOL    HW124237   3.281   2.917   0.395
 7410SOL    HW224238   3.152   2.986   0.358
 7411SOL     OW24239   8.921   9.075   1.969
 7411SOL    HW124240   8.867   9.046   2.042
 7411SOL    HW224241   8.859   9.109   1.905
 7412SOL     OW24242   4.108  10.591   6.778
 7412SOL    HW124243   4.067  10.618   6.860
 7412SOL    HW224244   4.160  10.514   6.801
 7413SOL     OW24245   7.761   0.684   7.633
 7413SOL    HW124246   7.802   0.628   7.699
 7413SOL    HW224247   7.804   0.769   7.643
 7414SOL     OW24248   1.652   0.825   8.810
 7414SOL    HW124249   1.683   0.853   8.724
 7414SOL    HW224250   1.599   0.747   8.792
 7415SOL     OW24251   9.871   2.097   1.448
 7415SOL    HW124252   9.868   2.063   1.537
 7415SOL    HW224253   9.836   2.186   1.454
 7416SOL     OW24254   8.729   0.291   5.265
 7416SOL    HW124255   8.661   0.285   5.332
 7416SOL    HW224256   8.683   0.320   5.186
 7417SOL     OW24257   5.559   4.065   2.190
 7417SOL    HW124258   5.649   4.099   2.189
 7417SOL    HW224259   5.555   4.010   2.268
 7418SOL     OW24260   0.889   7.237   1.111
 7418SOL    HW124261   0.877   7.321   1.155
 7418SOL    HW224262   0.975   7.244   1.069
 7419SOL     OW24263   0.967   5.589   8.349
 7419SOL    HW124264   0.957   5.683   8.334
 7419SOL    HW224265   0.947   5.549   8.264
 7420SOL     OW24266   8.776   9.199   1.754
 7420SOL    HW124267   8.736   9.284   1.772
 7420SOL    HW224268   8.865   9.220   1.724
 7421SOL     OW24269   3.749  10.052   2.814
 7421SOL    HW124270   3.717  10.040   2.903
 7421SOL    HW224271   3.721  10.140   2.789
 7422SOL     OW24272   3.678   7.037   2.272
 7422SOL    HW124273   3.655   7.081   2.354
 7422SOL    HW224274   3.599   7.044   2.218
 7423SOL     OW24275   3.952  10.840  10.540
 7423SOL    HW124276   3.944  10.835  10.444
 7423SOL    HW224277   4.041  10.809  10.558
 7424SOL     OW24278   5.436   3.747   1.274
 7424SOL    HW124279   5.532   3.746   1.269
 7424SOL    HW224280   5.415   3.826   1.323
 7425SOL     OW24281   4.098   0.160   8.258
 7425SOL    HW124282   4.144   0.216   8.320
 7425SOL    HW224283   4.070   0.084   8.310
 7426SOL     OW24284   7.846   9.426   6.748
 7426SOL    HW124285   7.755   9.428   6.778
 7426SOL    HW224286   7.897   9.458   6.822
 7427SOL     OW24287   3.913   8.856   6.716
 7427SOL    HW124288   3.844   8.815   6.663
 7427SOL    HW224289   3.913   8.807   6.798
 7428SOL     OW24290   5.778   0.939   4.442
 7428SOL    HW124291   5.814   0.967   4.357
 7428SOL    HW224292   5.778   1.018   4.495
 7429SOL     OW24293   3.617   0.041   7.894
 7429SOL    HW124294   3.601  -0.025   7.961
 7429SOL    HW224295   3.712   0.049   7.891
 7430SOL     OW24296   1.943   6.936   5.482
 7430SOL    HW124297   1.961   6.877   5.555
 7430SOL    HW224298   1.903   6.880   5.415
 7431SOL     OW24299   4.465   1.513   8.558
 7431SOL    HW124300   4.412   1.564   8.619
 7431SOL    HW224301   4.556   1.532   8.582
 7432SOL     OW24302   7.110   2.358   9.473
 7432SOL    HW124303   7.040   2.413   9.437
 7432SOL    HW224304   7.152   2.320   9.396
 7433SOL     OW24305   2.178   3.135   3.929
 7433SOL    HW124306   2.229   3.062   3.965
 7433SOL    HW224307   2.106   3.147   3.990
 7434SOL     OW24308  10.219   2.798   0.075
 7434SOL    HW124309  10.276   2.730   0.039
 7434SOL    HW224310  10.188   2.847  -0.001
 7435SOL     OW24311   3.651  11.008   7.254
 7435SOL    HW124312   3.658  11.055   7.171
 7435SOL    HW224313   3.558  10.989   7.263
 7436SOL     OW24314   6.885   8.743   5.510
 7436SOL    HW124315   6.850   8.788   5.433
 7436SOL    HW224316   6.812   8.691   5.543
 7437SOL     OW24317   9.162   8.371   8.289
 7437SOL    HW124318   9.144   8.306   8.220
 7437SOL    HW224319   9.255   8.393   8.278
 7438SOL     OW24320   5.699   6.600   1.825
 7438SOL    HW124321   5.776   6.606   1.882
 7438SOL    HW224322   5.674   6.691   1.809
 7439SOL     OW24323   8.236   0.786   4.261
 7439SOL    HW124324   8.230   0.805   4.167
 7439SOL    HW224325   8.328   0.766   4.276
 7440SOL     OW24326   3.371   6.628   4.459
 7440SOL    HW124327   3.389   6.605   4.368
 7440SOL    HW224328   3.411   6.714   4.470
 7441SOL     OW24329   2.887   6.168   9.545
 7441SOL    HW124330   2.795   6.187   9.560
 7441SOL    HW224331   2.933   6.249   9.566
 7442SOL     OW24332   5.412  10.456   2.794
 7442SOL    HW124333   5.507  10.468   2.793
 7442SOL    HW224334   5.387  10.472   2.885
 7443SOL     OW24335   9.335   9.120   3.161
 7443SOL    HW124336   9.254   9.158   3.128
 7443SOL    HW224337   9.325   9.026   3.147
 7444SOL     OW24338   3.387   8.298   1.791
 7444SOL    HW124339   3.331   8.243   1.736
 7444SOL    HW224340   3.389   8.253   1.875
 7445SOL     OW24341   7.761   0.643   7.013
 7445SOL    HW124342   7.820   0.719   7.013
 7445SOL    HW224343   7.810   0.574   7.059
 7446SOL     OW24344   0.681   0.252  10.713
 7446SOL    HW124345   0.774   0.273  10.721
 7446SOL    HW224346   0.673   0.210  10.627
 7447SOL     OW24347   1.543   4.509  10.235
 7447SOL    HW124348   1.590   4.566  10.174
 7447SOL    HW224349   1.561   4.545  10.321
 7448SOL     OW24350  10.134   9.555   1.700
 7448SOL    HW124351  10.135   9.582   1.608
 7448SOL    HW224352  10.190   9.477   1.703
 7449SOL     OW24353   3.982   7.116   0.158
 7449SOL    HW124354   3.894   7.146   0.182
 7449SOL    HW224355   3.976   7.093   0.066
 7450SOL     OW24356   4.967   9.540   7.114
 7450SOL    HW124357   5.047   9.563   7.161
 7450SOL    HW224358   4.921   9.481   7.173
 7451SOL     OW24359   7.967   6.420   5.441
 7451SOL    HW124360   8.009   6.388   5.361
 7451SOL    HW224361   7.933   6.506   5.417
 7452SOL     OW24362   6.721   2.869   4.832
 7452SOL    HW124363   6.780   2.801   4.798
 7452SOL    HW224364   6.732   2.942   4.772
 7453SOL     OW24365   1.332   3.098  10.705
 7453SOL    HW124366   1.386   3.021  10.722
 7453SOL    HW224367   1.242   3.064  10.705
 7454SOL     OW24368   9.172   9.077   2.814
 7454SOL    HW124369   9.096   9.105   2.763
 7454SOL    HW224370   9.142   9.078   2.905
 7455SOL     OW24371   3.529   8.702  10.274
 7455SOL    HW124372   3.466   8.759  10.318
 7455SOL    HW224373   3.484   8.674  10.194
 7456SOL     OW24374   0.830   0.756   3.373
 7456SOL    HW124375   0.848   0.722   3.285
 7456SOL    HW224376   0.913   0.796   3.400
 7457SOL     OW24377   0.617   6.786   9.038
 7457SOL    HW124378   0.703   6.828   9.042
 7457SOL    HW224379   0.636   6.694   9.018
 7458SOL     OW24380   8.912   5.458   1.910
 7458SOL    HW124381   8.840   5.460   1.847
 7458SOL    HW224382   8.986   5.421   1.861
 7459SOL     OW24383   5.288   7.501   3.995
 7459SOL    HW124384   5.210   7.448   3.975
 7459SOL    HW224385   5.257   7.591   3.995
 7460SOL     OW24386   3.163  10.160   7.592
 7460SOL    HW124387   3.123  10.246   7.585
 7460SOL    HW224388   3.097  10.100   7.557
 7461SOL     OW24389   9.235   1.436   5.598
 7461SOL    HW124390   9.247   1.399   5.685
 7461SOL    HW224391   9.146   1.470   5.598
 7462SOL     OW24392   3.804   1.429   6.741
 7462SOL    HW124393   3.881   1.484   6.756
 7462SOL    HW224394   3.770   1.458   6.656
 7463SOL     OW24395   1.575   9.803   4.568
 7463SOL    HW124396   1.498   9.838   4.524
 7463SOL    HW224397   1.627   9.880   4.591
 7464SOL     OW24398   1.632  10.710   0.901
 7464SOL    HW124399   1.617  10.662   0.819
 7464SOL    HW224400   1.658  10.643   0.964
 7465SOL     OW24401   0.064   4.681   0.668
 7465SOL    HW124402   0.101   4.690   0.580
 7465SOL    HW224403   0.018   4.597   0.666
 7466SOL     OW24404   2.394   8.360   0.775
 7466SOL    HW124405   2.376   8.435   0.831
 7466SOL    HW224406   2.424   8.292   0.835
 7467SOL     OW24407   8.511   1.067  10.802
 7467SOL    HW124408   8.449   1.104  10.739
 7467SOL    HW224409   8.489   0.974  10.804
 7468SOL     OW24410   0.543  10.796   6.698
 7468SOL    HW124411   0.555  10.773   6.605
 7468SOL    HW224412   0.533  10.712   6.742
 7469SOL     OW24413  10.846   7.667   1.502
 7469SOL    HW124414  10.874   7.733   1.438
 7469SOL    HW224415  10.776   7.709   1.551
 7470SOL     OW24416   0.044   7.788   9.588
 7470SOL    HW124417   0.039   7.761   9.680
 7470SOL    HW224418   0.087   7.714   9.544
 7471SOL     OW24419   0.532   0.388   9.606
 7471SOL    HW124420   0.466   0.341   9.555
 7471SOL    HW224421   0.579   0.319   9.653
 7472SOL     OW24422   0.523   1.507  10.861
 7472SOL    HW124423   0.549   1.487  10.951
 7472SOL    HW224424   0.471   1.587  10.868
 7473SOL     OW24425   0.030   6.965  10.760
 7473SOL    HW124426   0.058   6.998  10.845
 7473SOL    HW224427  -0.064   6.947  10.770
 7474SOL     OW24428  11.085   7.494   5.872
 7474SOL    HW124429  11.034   7.415   5.889
 7474SOL    HW224430  11.020   7.564   5.867
 7475SOL     OW24431   8.466   5.843   7.120
 7475SOL    HW124432   8.399   5.910   7.108
 7475SOL    HW224433   8.498   5.857   7.209
 7476SOL     OW24434  10.368   3.066   1.153
 7476SOL    HW124435  10.452   3.036   1.119
 7476SOL    HW224436  10.384   3.084   1.245
 7477SOL     OW24437   5.862   5.628   9.041
 7477SOL    HW124438   5.842   5.545   9.085
 7477SOL    HW224439   5.958   5.633   9.043
 7478SOL     OW24440   9.055   5.419   5.198
 7478SOL    HW124441   9.146   5.389   5.198
 7478SOL    HW224442   9.019   5.388   5.281
 7479SOL     OW24443  10.008   2.304   1.785
 7479SOL    HW124444   9.951   2.227   1.791
 7479SOL    HW224445  10.070   2.294   1.857
 7480SOL     OW24446   9.226   4.538  10.178
 7480SOL    HW124447   9.135   4.569  10.178
 7480SOL    HW224448   9.242   4.511  10.268
 7481SOL     OW24449   0.761   5.873   9.194
 7481SOL    HW124450   0.768   5.827   9.277
 7481SOL    HW224451   0.840   5.927   9.190
 7482SOL     OW24452   2.012  10.892   7.338
 7482SOL    HW124453   2.088  10.879   7.394
 7482SOL    HW224454   1.940  10.911   7.398
 7483SOL     OW24455   5.077   2.969   2.535
 7483SOL    HW124456   5.155   2.948   2.483
 7483SOL    HW224457   5.111   2.996   2.620
 7484SOL     OW24458   5.076  10.589   5.053
 7484SOL    HW124459   5.041  10.588   5.142
 7484SOL    HW224460   5.084  10.497   5.029
 7485SOL     OW24461   3.704   2.862   1.015
 7485SOL    HW124462   3.741   2.862   0.926
 7485SOL    HW224463   3.703   2.769   1.039
 7486SOL     OW24464   2.619   7.763   9.415
 7486SOL    HW124465   2.703   7.787   9.375
 7486SOL    HW224466   2.642   7.736   9.504
 7487SOL     OW24467   5.628   2.314   1.796
 7487SOL    HW124468   5.691   2.384   1.813
 7487SOL    HW224469   5.646   2.248   1.863
 7488SOL     OW24470   0.068   0.723   9.561
 7488SOL    HW124471   0.131   0.739   9.631
 7488SOL    HW224472  -0.011   0.770   9.587
 7489SOL     OW24473   0.141  11.061   1.153
 7489SOL    HW124474   0.228  11.040   1.119
 7489SOL    HW224475   0.080  11.026   1.087
 7490SOL     OW24476   2.227   5.094   4.749
 7490SOL    HW124477   2.216   5.165   4.812
 7490SOL    HW224478   2.321   5.092   4.731
 7491SOL     OW24479   8.875   1.780   1.407
 7491SOL    HW124480   8.807   1.822   1.354
 7491SOL    HW224481   8.939   1.747   1.343
 7492SOL     OW24482   3.999   0.927   5.768
 7492SOL    HW124483   3.926   0.885   5.722
 7492SOL    HW224484   4.055   0.854   5.795
 7493SOL     OW24485   3.773   4.367   2.594
 7493SOL    HW124486   3.686   4.328   2.591
 7493SOL    HW224487   3.759   4.459   2.572
 7494SOL     OW24488   0.580  10.440   5.575
 7494SOL    HW124489   0.565  10.364   5.630
 7494SOL    HW224490   0.565  10.515   5.632
 7495SOL     OW24491   8.274   2.132   9.348
 7495SOL    HW124492   8.349   2.081   9.317
 7495SOL    HW224493   8.239   2.174   9.269
 7496SOL     OW24494   6.315   7.877   5.639
 7496SOL    HW124495   6.410   7.873   5.653
 7496SOL    HW224496   6.287   7.785   5.639
 7497SOL     OW24497   0.441   1.785   6.494
 7497SOL    HW124498   0.375   1.835   6.447
 7497SOL    HW224499   0.407   1.695   6.494
 7498SOL     OW24500   0.150   7.401   0.528
 7498SOL    HW124501   0.133   7.331   0.591
 7498SOL    HW224502   0.233   7.439   0.555
 7499SOL     OW24503   0.165   6.790  10.194
 7499SOL    HW124504   0.254   6.822  10.180
 7499SOL    HW224505   0.142   6.747  10.111
 7500SOL     OW24506   6.105   9.072   9.622
 7500SOL    HW124507   6.045   9.087   9.549
 7500SOL    HW224508   6.190   9.105   9.591
 7501SOL     OW24509   8.134   1.858   6.704
 7501SOL    HW124510   8.055   1.911   6.700
 7501SOL    HW224511   8.201   1.910   6.659
 7502SOL     OW24512   1.430   8.025   9.963
 7502SOL    HW124513   1.439   8.119   9.953
 7502SOL    HW224514   1.518   7.991   9.948
 7503SOL     OW24515   1.780   3.267  10.813
 7503SOL    HW124516   1.812   3.354  10.789
 7503SOL    HW224517   1.848   3.232  10.871
 7504SOL     OW24518   1.821   3.839   6.653
 7504SOL    HW124519   1.885   3.907   6.635
 7504SOL    HW224520   1.871   3.757   6.646
 7505SOL     OW24521   9.016   1.419  10.934
 7505SOL    HW124522   9.040   1.483  10.867
 7505SOL    HW224523   8.921   1.409  10.925
 7506SOL     OW24524   3.934   3.067   1.177
 7506SOL    HW124525   3.875   3.005   1.220
 7506SOL    HW224526   4.001   3.086   1.243
 7507SOL     OW24527   1.029   2.023   3.349
 7507SOL    HW124528   1.121   2.013   3.324
 7507SOL    HW224529   0.981   2.006   3.268
 7508SOL     OW24530   1.874   3.921   1.672
 7508SOL    HW124531   1.967   3.913   1.694
 7508SOL    HW224532   1.871   3.908   1.577
 7509SOL     OW24533   4.118   8.611   3.256
 7509SOL    HW124534   4.078   8.528   3.228
 7509SOL    HW224535   4.185   8.629   3.189
 7510SOL     OW24536   1.961   2.231   8.744
 7510SOL    HW124537   1.866   2.218   8.742
 7510SOL    HW224538   1.997   2.143   8.759
 7511SOL     OW24539   5.838   0.682   7.175
 7511SOL    HW124540   5.819   0.711   7.086
 7511SOL    HW224541   5.927   0.713   7.192
 7512SOL     OW24542   1.460   5.131   5.588
 7512SOL    HW124543   1.510   5.085   5.520
 7512SOL    HW224544   1.398   5.065   5.620
 7513SOL     OW24545   4.077   2.696   1.049
 7513SOL    HW124546   4.115   2.742   0.974
 7513SOL    HW224547   4.047   2.612   1.012
 7514SOL     OW24548   8.254   0.684   0.914
 7514SOL    HW124549   8.347   0.662   0.916
 7514SOL    HW224550   8.213   0.609   0.870
 7515SOL     OW24551   6.549   9.691   9.717
 7515SOL    HW124552   6.619   9.721   9.775
 7515SOL    HW224553   6.520   9.769   9.671
 7516SOL     OW24554   3.617  10.420  10.370
 7516SOL    HW124555   3.534  10.374  10.381
 7516SOL    HW224556   3.648  10.436  10.459
 7517SOL     OW24557   5.030   4.534   8.344
 7517SOL    HW124558   4.966   4.473   8.307
 7517SOL    HW224559   4.981   4.614   8.360
 7518SOL     OW24560   1.886   6.363   1.822
 7518SOL    HW124561   1.861   6.279   1.782
 7518SOL    HW224562   1.929   6.411   1.751
 7519SOL     OW24563   2.107  10.673   8.537
 7519SOL    HW124564   2.113  10.579   8.521
 7519SOL    HW224565   2.134  10.683   8.628
 7520SOL     OW24566   4.791   8.512   8.750
 7520SOL    HW124567   4.830   8.530   8.664
 7520SOL    HW224568   4.749   8.594   8.775
 7521SOL     OW24569   2.398   4.283  10.414
 7521SOL    HW124570   2.359   4.273  10.327
 7521SOL    HW224571   2.488   4.312  10.396
 7522SOL     OW24572   9.550   8.398  10.543
 7522SOL    HW124573   9.608   8.471  10.564
 7522SOL    HW224574   9.487   8.396  10.615
 7523SOL     OW24575   5.581   0.118   0.239
 7523SOL    HW124576   5.610   0.133   0.329
 7523SOL    HW224577   5.601   0.026   0.222
 7524SOL     OW24578   8.910   6.464   1.954
 7524SOL    HW124579   8.874   6.500   2.035
 7524SOL    HW224580   8.834   6.451   1.897
 7525SOL     OW24581  10.841   9.431   1.237
 7525SOL    HW124582  10.873   9.471   1.156
 7525SOL    HW224583  10.760   9.478   1.257
 7526SOL     OW24584   0.706   2.907   6.185
 7526SOL    HW124585   0.700   2.953   6.268
 7526SOL    HW224586   0.689   2.815   6.207
 7527SOL     OW24587   3.109   7.255   9.898
 7527SOL    HW124588   3.049   7.297   9.959
 7527SOL    HW224589   3.174   7.322   9.877
 7528SOL     OW24590   3.091   5.501  10.017
 7528SOL    HW124591   3.154   5.559   9.975
 7528SOL    HW224592   3.007   5.545  10.007
 7529SOL     OW24593  10.574   5.742   1.151
 7529SOL    HW124594  10.659   5.777   1.178
 7529SOL    HW224595  10.595   5.658   1.110
 7530SOL     OW24596   6.115  10.820   1.810
 7530SOL    HW124597   6.057  10.755   1.770
 7530SOL    HW224598   6.085  10.904   1.775
 7531SOL     OW24599   8.855   9.959   3.628
 7531SOL    HW124600   8.892   9.932   3.544
 7531SOL    HW224601   8.931   9.981   3.681
 7532SOL     OW24602   6.739   6.767   1.563
 7532SOL    HW124603   6.655   6.739   1.528
 7532SOL    HW224604   6.800   6.697   1.538
 7533SOL     OW24605   1.561   1.790   5.785
 7533SOL    HW124606   1.618   1.717   5.759
 7533SOL    HW224607   1.591   1.864   5.732
 7534SOL     OW24608   1.189  10.137   1.602
 7534SOL    HW124609   1.127  10.143   1.674
 7534SOL    HW224610   1.219  10.046   1.604
 7535SOL     OW24611   4.471  10.580   2.558
 7535SOL    HW124612   4.514  10.579   2.643
 7535SOL    HW224613   4.528  10.634   2.503
 7536SOL     OW24614   8.403   4.217   3.816
 7536SOL    HW124615   8.365   4.297   3.851
 7536SOL    HW224616   8.497   4.234   3.814
 7537SOL     OW24617   3.998   7.807   2.446
 7537SOL    HW124618   3.926   7.845   2.396
 7537SOL    HW224619   4.068   7.796   2.382
 7538SOL     OW24620   2.858   2.378   0.428
 7538SOL    HW124621   2.804   2.314   0.381
 7538SOL    HW224622   2.829   2.463   0.396
 7539SOL     OW24623   0.295   3.433   1.641
 7539SOL    HW124624   0.349   3.509   1.623
 7539SOL    HW224625   0.356   3.366   1.671
 7540SOL     OW24626   6.732   2.482   1.362
 7540SOL    HW124627   6.792   2.415   1.395
 7540SOL    HW224628   6.708   2.533   1.439
 7541SOL     OW24629   7.133   0.625   4.941
 7541SOL    HW124630   7.187   0.673   4.878
 7541SOL    HW224631   7.057   0.597   4.890
 7542SOL     OW24632   7.744   4.244   9.617
 7542SOL    HW124633   7.802   4.173   9.645
 7542SOL    HW224634   7.800   4.321   9.614
 7543SOL     OW24635   1.716   2.496   4.183
 7543SOL    HW124636   1.675   2.581   4.198
 7543SOL    HW224637   1.723   2.456   4.270
 7544SOL     OW24638   3.250   5.269   9.553
 7544SOL    HW124639   3.219   5.347   9.508
 7544SOL    HW224640   3.335   5.294   9.590
 7545SOL     OW24641   8.142   2.564   0.702
 7545SOL    HW124642   8.181   2.478   0.683
 7545SOL    HW224643   8.136   2.567   0.797
 7546SOL     OW24644   9.353  10.584   1.099
 7546SOL    HW124645   9.351  10.490   1.119
 7546SOL    HW224646   9.435  10.597   1.052
 7547SOL     OW24647   8.677   0.587   5.422
 7547SOL    HW124648   8.762   0.630   5.431
 7547SOL    HW224649   8.691   0.499   5.457
 7548SOL     OW24650   4.252   7.122   5.787
 7548SOL    HW124651   4.296   7.156   5.865
 7548SOL    HW224652   4.200   7.195   5.754
 7549SOL     OW24653   2.426   5.580   3.171
 7549SOL    HW124654   2.410   5.665   3.131
 7549SOL    HW224655   2.393   5.588   3.260
 7550SOL     OW24656   4.307  10.270   7.501
 7550SOL    HW124657   4.354  10.187   7.491
 7550SOL    HW224658   4.365  10.334   7.460
 7551SOL     OW24659   8.255   2.601   2.657
 7551SOL    HW124660   8.208   2.684   2.651
 7551SOL    HW224661   8.187   2.535   2.668
 7552SOL     OW24662   5.240   9.232  10.576
 7552SOL    HW124663   5.313   9.235  10.513
 7552SOL    HW224664   5.172   9.183  10.530
 7553SOL     OW24665   9.548   4.857   2.417
 7553SOL    HW124666   9.472   4.853   2.359
 7553SOL    HW224667   9.556   4.768   2.453
 7554SOL     OW24668   7.508   0.617   5.328
 7554SOL    HW124669   7.527   0.552   5.396
 7554SOL    HW224670   7.559   0.694   5.353
 7555SOL     OW24671   9.886  10.168   2.131
 7555SOL    HW124672   9.975  10.174   2.097
 7555SOL    HW224673   9.833  10.145   2.054
 7556SOL     OW24674   3.795   4.052   0.953
 7556SOL    HW124675   3.739   4.128   0.936
 7556SOL    HW224676   3.771   3.989   0.885
 7557SOL     OW24677   0.765   2.461   4.046
 7557SOL    HW124678   0.806   2.509   3.974
 7557SOL    HW224679   0.821   2.384   4.058
 7558SOL     OW24680   1.761   7.462  10.152
 7558SOL    HW124681   1.760   7.375  10.112
 7558SOL    HW224682   1.669   7.480  10.171
 7559SOL     OW24683   8.723   6.611   3.062
 7559SOL    HW124684   8.767   6.695   3.075
 7559SOL    HW224685   8.794   6.546   3.062
 7560SOL     OW24686   4.361   6.231   3.158
 7560SOL    HW124687   4.379   6.300   3.221
 7560SOL    HW224688   4.321   6.276   3.083
 7561SOL     OW24689   6.103   0.952   9.169
 7561SOL    HW124690   6.164   1.020   9.141
 7561SOL    HW224691   6.067   0.984   9.251
 7562SOL     OW24692   2.491  10.394   6.041
 7562SOL    HW124693   2.584  10.393   6.018
 7562SOL    HW224694   2.451  10.452   5.976
 7563SOL     OW24695   9.080   2.051   8.831
 7563SOL    HW124696   9.088   1.967   8.877
 7563SOL    HW224697   8.994   2.047   8.789
 7564SOL     OW24698  10.200   9.794   2.188
 7564SOL    HW124699  10.231   9.836   2.268
 7564SOL    HW224700  10.189   9.866   2.126
 7565SOL     OW24701   1.479   8.891   7.719
 7565SOL    HW124702   1.531   8.959   7.761
 7565SOL    HW224703   1.541   8.846   7.661
 7566SOL     OW24704   3.796  10.658  10.346
 7566SOL    HW124705   3.817  10.710  10.268
 7566SOL    HW224706   3.815  10.568  10.320
 7567SOL     OW24707   6.468  10.502   0.401
 7567SOL    HW124708   6.495  10.590   0.376
 7567SOL    HW224709   6.394  10.482   0.343
 7568SOL     OW24710   7.976   3.144   0.453
 7568SOL    HW124711   8.043   3.161   0.519
 7568SOL    HW224712   7.904   3.202   0.476
 7569SOL     OW24713   4.173   1.313   9.478
 7569SOL    HW124714   4.172   1.287   9.570
 7569SOL    HW224715   4.091   1.278   9.442
 7570SOL     OW24716   7.701   3.569   1.112
 7570SOL    HW124717   7.731   3.567   1.203
 7570SOL    HW224718   7.747   3.496   1.070
 7571SOL     OW24719   4.875   0.058   0.342
 7571SOL    HW124720   4.790   0.066   0.385
 7571SOL    HW224721   4.912  -0.023   0.377
 7572SOL     OW24722   0.737   9.559  10.042
 7572SOL    HW124723   0.646   9.586  10.056
 7572SOL    HW224724   0.785   9.595  10.116
 7573SOL     OW24725   3.778   6.894  10.877
 7573SOL    HW124726   3.820   6.964  10.926
 7573SOL    HW224727   3.850   6.836  10.851
 7574SOL     OW24728   3.103   0.114   6.097
 7574SOL    HW124729   3.087   0.195   6.145
 7574SOL    HW224730   3.077   0.044   6.157
 7575SOL     OW24731   5.126   5.864   7.841
 7575SOL    HW124732   5.152   5.952   7.813
 7575SOL    HW224733   5.116   5.815   7.759
 7576SOL     OW24734   9.438  10.588   3.006
 7576SOL    HW124735   9.511  10.578   2.944
 7576SOL    HW224736   9.468  10.543   3.085
 7577SOL     OW24737   4.605   4.277   5.406
 7577SOL    HW124738   4.686   4.243   5.368
 7577SOL    HW224739   4.628   4.300   5.496
 7578SOL     OW24740   6.027  10.760   2.467
 7578SOL    HW124741   6.093  10.743   2.399
 7578SOL    HW224742   5.944  10.736   2.426
 7579SOL     OW24743  10.579  10.240   2.464
 7579SOL    HW124744  10.558  10.198   2.380
 7579SOL    HW224745  10.515  10.204   2.525
 7580SOL     OW24746   1.657   9.853   9.458
 7580SOL    HW124747   1.610   9.810   9.529
 7580SOL    HW224748   1.707   9.782   9.417
 7581SOL     OW24749   2.270   9.150   3.674
 7581SOL    HW124750   2.190   9.169   3.723
 7581SOL    HW224751   2.280   9.224   3.615
 7582SOL     OW24752   0.863  10.432   2.215
 7582SOL    HW124753   0.909  10.386   2.285
 7582SOL    HW224754   0.897  10.393   2.134
 7583SOL     OW24755   9.817   6.234   7.537
 7583SOL    HW124756   9.886   6.237   7.603
 7583SOL    HW224757   9.747   6.288   7.573
 7584SOL     OW24758   1.180  10.658   1.615
 7584SOL    HW124759   1.191  10.706   1.697
 7584SOL    HW224760   1.220  10.573   1.632
 7585SOL     OW24761   5.643   3.751   2.719
 7585SOL    HW124762   5.599   3.666   2.722
 7585SOL    HW224763   5.722   3.735   2.667
 7586SOL     OW24764   5.560   1.534   1.175
 7586SOL    HW124765   5.499   1.604   1.155
 7586SOL    HW224766   5.520   1.456   1.136
 7587SOL     OW24767   7.256   1.512   9.154
 7587SOL    HW124768   7.180   1.570   9.145
 7587SOL    HW224769   7.218   1.425   9.167
 7588SOL     OW24770   8.089  10.502  10.982
 7588SOL    HW124771   8.002  10.523  11.015
 7588SOL    HW224772   8.141  10.482  11.060
 7589SOL     OW24773   0.257   2.628   3.373
 7589SOL    HW124774   0.288   2.676   3.449
 7589SOL    HW224775   0.187   2.682   3.336
 7590SOL     OW24776   1.620   5.156   8.340
 7590SOL    HW124777   1.586   5.155   8.250
 7590SOL    HW224778   1.609   5.246   8.369
 7591SOL     OW24779   0.412   0.443   2.321
 7591SOL    HW124780   0.369   0.381   2.262
 7591SOL    HW224781   0.504   0.444   2.292
 7592SOL     OW24782   6.928   2.615   7.357
 7592SOL    HW124783   6.974   2.566   7.288
 7592SOL    HW224784   6.835   2.599   7.340
 7593SOL     OW24785   2.600   5.576   4.303
 7593SOL    HW124786   2.670   5.581   4.368
 7593SOL    HW224787   2.614   5.652   4.247
 7594SOL     OW24788   7.317   5.645   2.480
 7594SOL    HW124789   7.329   5.728   2.525
 7594SOL    HW224790   7.222   5.631   2.478
 7595SOL     OW24791   9.628   1.464   1.992
 7595SOL    HW124792   9.585   1.534   1.943
 7595SOL    HW224793   9.563   1.436   2.056
 7596SOL     OW24794  10.969  10.948   3.947
 7596SOL    HW124795  10.978  11.041   3.928
 7596SOL    HW224796  11.054  10.923   3.984
 7597SOL     OW24797   3.278   0.478   0.949
 7597SOL    HW124798   3.240   0.439   0.870
 7597SOL    HW224799   3.204   0.518   0.994
 7598SOL     OW24800   5.813   7.581   4.595
 7598SOL    HW124801   5.763   7.645   4.545
 7598SOL    HW224802   5.749   7.514   4.619
 7599SOL     OW24803   2.349   8.002   6.967
 7599SOL    HW124804   2.421   8.032   7.022
 7599SOL    HW224805   2.367   7.908   6.954
 7600SOL     OW24806   8.785   6.945  10.638
 7600SOL    HW124807   8.800   7.002  10.562
 7600SOL    HW224808   8.844   6.978  10.705
 7601SOL     OW24809   9.133   1.939   4.820
 7601SOL    HW124810   9.228   1.932   4.831
 7601SOL    HW224811   9.105   1.849   4.805
 7602SOL     OW24812   1.665  10.191  10.438
 7602SOL    HW124813   1.755  10.196  10.471
 7602SOL    HW224814   1.619  10.134  10.500
 7603SOL     OW24815   4.917   4.715   9.600
 7603SOL    HW124816   4.832   4.759   9.598
 7603SOL    HW224817   4.911   4.655   9.674
 7604SOL     OW24818   4.333   7.753   3.412
 7604SOL    HW124819   4.278   7.676   3.429
 7604SOL    HW224820   4.420   7.716   3.395
 7605SOL     OW24821   9.455   3.301   6.580
 7605SOL    HW124822   9.453   3.288   6.485
 7605SOL    HW224823   9.491   3.219   6.614
 7606SOL     OW24824   4.959   3.525   4.702
 7606SOL    HW124825   4.957   3.593   4.769
 7606SOL    HW224826   4.882   3.470   4.719
 7607SOL     OW24827   5.969   1.344   3.233
 7607SOL    HW124828   5.982   1.274   3.168
 7607SOL    HW224829   5.883   1.380   3.212
 7608SOL     OW24830   3.776   5.521   9.692
 7608SOL    HW124831   3.783   5.439   9.741
 7608SOL    HW224832   3.859   5.527   9.645
 7609SOL     OW24833   0.496   2.449   9.039
 7609SOL    HW124834   0.419   2.505   9.031
 7609SOL    HW224835   0.464   2.361   9.019
 7610SOL     OW24836   0.394   5.447   0.827
 7610SOL    HW124837   0.472   5.437   0.772
 7610SOL    HW224838   0.342   5.513   0.782
 7611SOL     OW24839   1.015   9.830   4.535
 7611SOL    HW124840   0.993   9.920   4.513
 7611SOL    HW224841   0.946   9.802   4.594
 7612SOL     OW24842   9.953   0.095   0.112
 7612SOL    HW124843   9.912   0.052   0.037
 7612SOL    HW224844  10.044   0.109   0.085
 7613SOL     OW24845   2.863   3.189   4.052
 7613SOL    HW124846   2.919   3.199   4.128
 7613SOL    HW224847   2.785   3.144   4.085
 7614SOL     OW24848   9.830   7.447   2.305
 7614SOL    HW124849   9.826   7.542   2.305
 7614SOL    HW224850   9.743   7.419   2.334
 7615SOL     OW24851   0.287   0.891   2.628
 7615SOL    HW124852   0.315   0.807   2.665
 7615SOL    HW224853   0.329   0.957   2.683
 7616SOL     OW24854   6.510   6.453   9.345
 7616SOL    HW124855   6.543   6.474   9.432
 7616SOL    HW224856   6.508   6.357   9.342
 7617SOL     OW24857  10.685   0.013   1.732
 7617SOL    HW124858  10.751   0.002   1.663
 7617SOL    HW224859  10.717  -0.041   1.804
 7618SOL     OW24860   5.281   2.096   2.968
 7618SOL    HW124861   5.229   2.176   2.974
 7618SOL    HW224862   5.337   2.097   3.045
 7619SOL     OW24863  10.768   6.261   7.987
 7619SOL    HW124864  10.763   6.192   7.920
 7619SOL    HW224865  10.855   6.251   8.025
 7620SOL     OW24866   1.808   4.134   2.295
 7620SOL    HW124867   1.786   4.205   2.355
 7620SOL    HW224868   1.887   4.094   2.332
 7621SOL     OW24869   4.919   6.686   9.393
 7621SOL    HW124870   4.993   6.666   9.336
 7621SOL    HW224871   4.958   6.729   9.469
 7622SOL     OW24872   4.174   0.026   6.660
 7622SOL    HW124873   4.215  -0.046   6.708
 7622SOL    HW224874   4.212   0.021   6.572
 7623SOL     OW24875   9.580   0.988   0.275
 7623SOL    HW124876   9.652   0.933   0.245
 7623SOL    HW224877   9.623   1.060   0.320
 7624SOL     OW24878   0.031   1.664  10.868
 7624SOL    HW124879  -0.046   1.714  10.841
 7624SOL    HW224880  -0.001   1.574  10.875
 7625SOL     OW24881   4.342   3.241  10.272
 7625SOL    HW124882   4.252   3.224  10.299
 7625SOL    HW224883   4.374   3.156  10.241
 7626SOL     OW24884   3.652   4.463   2.066
 7626SOL    HW124885   3.606   4.543   2.040
 7626SOL    HW224886   3.711   4.445   1.992
 7627SOL     OW24887   8.077   5.669  10.726
 7627SOL    HW124888   8.031   5.698  10.647
 7627SOL    HW224889   8.169   5.664  10.699
 7628SOL     OW24890   4.007   7.442   7.343
 7628SOL    HW124891   3.948   7.436   7.268
 7628SOL    HW224892   4.086   7.483   7.307
 7629SOL     OW24893   7.080   0.747   4.273
 7629SOL    HW124894   7.133   0.668   4.261
 7629SOL    HW224895   7.085   0.765   4.367
 7630SOL     OW24896   0.826   1.567   2.512
 7630SOL    HW124897   0.797   1.656   2.529
 7630SOL    HW224898   0.757   1.529   2.458
 7631SOL     OW24899   5.368   5.242   7.876
 7631SOL    HW124900   5.403   5.293   7.949
 7631SOL    HW224901   5.373   5.300   7.800
 7632SOL     OW24902   5.432   3.861   1.772
 7632SOL    HW124903   5.510   3.828   1.816
 7632SOL    HW224904   5.437   3.825   1.683
 7633SOL     OW24905   3.174   1.923   0.496
 7633SOL    HW124906   3.174   2.015   0.471
 7633SOL    HW224907   3.267   1.898   0.496
 7634SOL     OW24908   8.376  10.437   6.390
 7634SOL    HW124909   8.459  10.452   6.436
 7634SOL    HW224910   8.386  10.350   6.351
 7635SOL     OW24911   9.871   3.040   7.516
 7635SOL    HW124912   9.902   3.002   7.598
 7635SOL    HW224913   9.779   3.061   7.532
 7636SOL     OW24914   3.682   5.120   3.002
 7636SOL    HW124915   3.603   5.066   3.008
 7636SOL    HW224916   3.745   5.064   2.957
 7637SOL     OW24917   0.099   6.048   1.597
 7637SOL    HW124918   0.173   5.988   1.608
 7637SOL    HW224919   0.117   6.119   1.657
 7638SOL     OW24920   2.402   2.246   9.767
 7638SOL    HW124921   2.483   2.204   9.796
 7638SOL    HW224922   2.430   2.328   9.727
 7639SOL     OW24923   4.433   7.786   5.154
 7639SOL    HW124924   4.440   7.881   5.162
 7639SOL    HW224925   4.347   7.764   5.191
 7640SOL     OW24926   9.821   6.868   9.073
 7640SOL    HW124927   9.752   6.932   9.090
 7640SOL    HW224928   9.886   6.882   9.142
 7641SOL     OW24929   3.162   5.918   1.135
 7641SOL    HW124930   3.107   5.871   1.072
 7641SOL    HW224931   3.251   5.890   1.114
 7642SOL     OW24932   7.646   3.982   9.865
 7642SOL    HW124933   7.711   4.043   9.830
 7642SOL    HW224934   7.693   3.934   9.933
 7643SOL     OW24935   4.812  10.849   1.510
 7643SOL    HW124936   4.870  10.813   1.443
 7643SOL    HW224937   4.747  10.900   1.461
 7644SOL     OW24938   2.563   1.089   1.362
 7644SOL    HW124939   2.471   1.064   1.356
 7644SOL    HW224940   2.590   1.103   1.271
 7645SOL     OW24941   4.554  10.556   1.333
 7645SOL    HW124942   4.619  10.487   1.347
 7645SOL    HW224943   4.480  10.511   1.293
 7646SOL     OW24944   3.780   1.617   3.414
 7646SOL    HW124945   3.829   1.687   3.371
 7646SOL    HW224946   3.827   1.537   3.391
 7647SOL     OW24947   4.627   7.363   6.327
 7647SOL    HW124948   4.678   7.438   6.357
 7647SOL    HW224949   4.690   7.310   6.277
 7648SOL     OW24950   0.602   1.150   2.892
 7648SOL    HW124951   0.605   1.179   2.801
 7648SOL    HW224952   0.518   1.104   2.900
 7649SOL     OW24953   6.020   5.294   0.850
 7649SOL    HW124954   6.009   5.203   0.880
 7649SOL    HW224955   5.931   5.326   0.838
 7650SOL     OW24956   7.871   8.189  11.029
 7650SOL    HW124957   7.897   8.130  11.100
 7650SOL    HW224958   7.802   8.243  11.067
 7651SOL     OW24959   4.627   3.039   9.651
 7651SOL    HW124960   4.689   3.096   9.607
 7651SOL    HW224961   4.557   3.097   9.681
 7652SOL     OW24962   0.538   3.872   3.554
 7652SOL    HW124963   0.472   3.921   3.505
 7652SOL    HW224964   0.491   3.795   3.586
 7653SOL     OW24965  10.760   5.047   6.132
 7653SOL    HW124966  10.688   5.102   6.161
 7653SOL    HW224967  10.828   5.108   6.104
 7654SOL     OW24968  10.645   0.298   1.853
 7654SOL    HW124969  10.654   0.217   1.802
 7654SOL    HW224970  10.688   0.365   1.800
 7655SOL     OW24971   5.577   5.078   3.065
 7655SOL    HW124972   5.627   5.093   2.984
 7655SOL    HW224973   5.609   5.144   3.126
 7656SOL     OW24974   4.313   9.896   2.781
 7656SOL    HW124975   4.377   9.944   2.729
 7656SOL    HW224976   4.261   9.848   2.716
 7657SOL     OW24977   8.731   3.204   0.516
 7657SOL    HW124978   8.725   3.108   0.514
 7657SOL    HW224979   8.733   3.230   0.424
 7658SOL     OW24980   7.024   0.189   3.034
 7658SOL    HW124981   7.078   0.199   2.955
 7658SOL    HW224982   6.988   0.276   3.050
 7659SOL     OW24983   5.532   9.612   6.572
 7659SOL    HW124984   5.541   9.684   6.634
 7659SOL    HW224985   5.485   9.650   6.498
 7660SOL     OW24986  10.037   7.947   1.504
 7660SOL    HW124987  10.064   7.958   1.595
 7660SOL    HW224988  10.119   7.939   1.455
 7661SOL     OW24989   1.025   4.032   8.138
 7661SOL    HW124990   1.113   4.016   8.105
 7661SOL    HW224991   1.037   4.096   8.207
 7662SOL     OW24992   0.440   5.771   0.127
 7662SOL    HW124993   0.358   5.739   0.165
 7662SOL    HW224994   0.505   5.706   0.153
 7663SOL     OW24995   6.345   5.389   2.631
 7663SOL    HW124996   6.388   5.356   2.552
 7663SOL    HW224997   6.417   5.403   2.693
 7664SOL     OW24998   5.371  10.332   1.815
 7664SOL    HW124999   5.298  10.390   1.794
 7664SOL    HW225000   5.434  10.346   1.744
 7665SOL     OW25001   4.662   3.252   1.937
 7665SOL    HW125002   4.614   3.333   1.921
 7665SOL    HW225003   4.600   3.183   1.915
 7666SOL     OW25004   9.122   0.770   3.115
 7666SOL    HW125005   9.176   0.696   3.087
 7666SOL    HW225006   9.168   0.847   3.082
 7667SOL     OW25007   2.339  11.000   1.178
 7667SOL    HW125008   2.397  10.975   1.106
 7667SOL    HW225009   2.398  11.020   1.250
 7668SOL     OW25010   5.070   0.858   1.976
 7668SOL    HW125011   5.136   0.907   2.025
 7668SOL    HW225012   5.017   0.815   2.043
 7669SOL     OW25013   7.161   9.081   0.896
 7669SOL    HW125014   7.137   9.163   0.854
 7669SOL    HW225015   7.254   9.071   0.877
 7670SOL     OW25016   0.457  11.046   3.216
 7670SOL    HW125017   0.391  11.052   3.285
 7670SOL    HW225018   0.416  10.993   3.148
 7671SOL     OW25019   3.963   5.306   3.887
 7671SOL    HW125020   3.949   5.374   3.952
 7671SOL    HW225021   4.024   5.344   3.824
 7672SOL     OW25022   5.236   1.699   7.663
 7672SOL    HW125023   5.285   1.617   7.663
 7672SOL    HW225024   5.208   1.710   7.754
 7673SOL     OW25025   1.683  11.008   0.903
 7673SOL    HW125026   1.705  11.001   0.810
 7673SOL    HW225027   1.588  10.998   0.906
 7674SOL     OW25028  10.836   9.062   7.890
 7674SOL    HW125029  10.915   9.114   7.874
 7674SOL    HW225030  10.818   9.020   7.806
 7675SOL     OW25031   8.322   3.219   3.071
 7675SOL    HW125032   8.371   3.294   3.103
 7675SOL    HW225033   8.231   3.237   3.096
 7676SOL     OW25034  10.515   7.164   2.333
 7676SOL    HW125035  10.517   7.241   2.389
 7676SOL    HW225036  10.588   7.176   2.272
 7677SOL     OW25037   2.605   2.031   5.941
 7677SOL    HW125038   2.646   1.949   5.913
 7677SOL    HW225039   2.630   2.094   5.873
 7678SOL     OW25040   5.973   7.730  11.067
 7678SOL    HW125041   5.994   7.776  10.985
 7678SOL    HW225042   6.023   7.648  11.062
 7679SOL     OW25043   2.834   8.497   2.576
 7679SOL    HW125044   2.817   8.488   2.669
 7679SOL    HW225045   2.923   8.462   2.564
 7680SOL     OW25046   1.695  10.433   7.430
 7680SOL    HW125047   1.648  10.360   7.470
 7680SOL    HW225048   1.786  10.420   7.456
 7681SOL     OW25049  10.176   2.030   4.848
 7681SOL    HW125050  10.174   1.997   4.758
 7681SOL    HW225051  10.096   1.996   4.888
 7682SOL     OW25052   6.377   2.687   6.910
 7682SOL    HW125053   6.391   2.594   6.929
 7682SOL    HW225054   6.292   2.689   6.865
 7683SOL     OW25055   4.637   8.105   7.200
 7683SOL    HW125056   4.602   8.097   7.288
 7683SOL    HW225057   4.732   8.104   7.211
 7684SOL     OW25058   3.839   8.808   2.344
 7684SOL    HW125059   3.878   8.893   2.325
 7684SOL    HW225060   3.909   8.758   2.386
 7685SOL     OW25061   8.620   9.237   0.317
 7685SOL    HW125062   8.638   9.326   0.287
 7685SOL    HW225063   8.533   9.217   0.282
 7686SOL     OW25064   8.430   5.984   4.583
 7686SOL    HW125065   8.353   5.927   4.580
 7686SOL    HW225066   8.399   6.065   4.621
 7687SOL     OW25067   8.153  10.082   9.978
 7687SOL    HW125068   8.122  10.069   9.888
 7687SOL    HW225069   8.206  10.161   9.974
 7688SOL     OW25070   5.096   7.454  10.731
 7688SOL    HW125071   5.057   7.385  10.785
 7688SOL    HW225072   5.111   7.412  10.646
 7689SOL     OW25073   4.961   7.365   9.541
 7689SOL    HW125074   5.006   7.314   9.473
 7689SOL    HW225075   4.893   7.412   9.493
 7690SOL     OW25076   2.246   1.287   2.361
 7690SOL    HW125077   2.322   1.286   2.302
 7690SOL    HW225078   2.279   1.251   2.443
 7691SOL     OW25079   4.214   0.898  10.198
 7691SOL    HW125080   4.242   0.958  10.267
 7691SOL    HW225081   4.127   0.929  10.173
 7692SOL     OW25082   1.225   1.231  10.233
 7692SOL    HW125083   1.320   1.246  10.236
 7692SOL    HW225084   1.201   1.213  10.324
 7693SOL     OW25085   8.578   7.907   5.043
 7693SOL    HW125086   8.551   7.819   5.069
 7693SOL    HW225087   8.663   7.920   5.086
 7694SOL     OW25088   3.951   1.532   7.487
 7694SOL    HW125089   4.013   1.571   7.425
 7694SOL    HW225090   3.957   1.438   7.469
 7695SOL     OW25091  10.385  10.367   3.982
 7695SOL    HW125092  10.446  10.295   3.963
 7695SOL    HW225093  10.429  10.445   3.949
 7696SOL     OW25094  10.756  10.951   4.536
 7696SOL    HW125095  10.783  10.972   4.625
 7696SOL    HW225096  10.782  11.028   4.485
 7697SOL     OW25097   0.923  10.379   8.113
 7697SOL    HW125098   0.980  10.402   8.039
 7697SOL    HW225099   0.978  10.391   8.190
 7698SOL     OW25100   8.601   5.831   2.736
 7698SOL    HW125101   8.512   5.825   2.770
 7698SOL    HW225102   8.656   5.799   2.807
 7699SOL     OW25103   9.242  10.315   1.176
 7699SOL    HW125104   9.168  10.336   1.232
 7699SOL    HW225105   9.204  10.264   1.104
 7700SOL     OW25106   0.738   0.095   1.964
 7700SOL    HW125107   0.675   0.030   1.995
 7700SOL    HW225108   0.820   0.071   2.007
 7701SOL     OW25109   0.639   5.363   7.861
 7701SOL    HW125110   0.640   5.438   7.802
 7701SOL    HW225111   0.702   5.302   7.823
 7702SOL     OW25112   1.427  10.371   7.924
 7702SOL    HW125113   1.394  10.457   7.949
 7702SOL    HW225114   1.429  10.373   7.828
 7703SOL     OW25115   0.309   3.847   4.343
 7703SOL    HW125116   0.254   3.867   4.267
 7703SOL    HW225117   0.341   3.758   4.325
 7704SOL     OW25118   6.772   0.995   2.563
 7704SOL    HW125119   6.716   1.059   2.520
 7704SOL    HW225120   6.852   0.994   2.510
 7705SOL     OW25121   9.274   8.625  10.003
 7705SOL    HW125122   9.268   8.539  10.045
 7705SOL    HW225123   9.366   8.649  10.012
 7706SOL     OW25124   8.112   9.044   5.283
 7706SOL    HW125125   8.022   9.076   5.286
 7706SOL    HW225126   8.148   9.063   5.369
 7707SOL     OW25127   2.056  10.554   8.939
 7707SOL    HW125128   2.044  10.528   8.847
 7707SOL    HW225129   2.063  10.472   8.987
 7708SOL     OW25130   7.998   8.645   9.119
 7708SOL    HW125131   8.073   8.590   9.093
 7708SOL    HW225132   7.948   8.657   9.038
 7709SOL     OW25133   1.895   9.919   4.726
 7709SOL    HW125134   1.965   9.985   4.728
 7709SOL    HW225135   1.824   9.960   4.677
 7710SOL     OW25136   6.098   1.379   0.706
 7710SOL    HW125137   6.093   1.454   0.647
 7710SOL    HW225138   6.191   1.355   0.706
 7711SOL     OW25139   1.160   8.716  10.307
 7711SOL    HW125140   1.089   8.770  10.341
 7711SOL    HW225141   1.205   8.683  10.385
 7712SOL     OW25142  10.695   4.129   6.773
 7712SOL    HW125143  10.671   4.206   6.722
 7712SOL    HW225144  10.732   4.163   6.854
 7713SOL     OW25145   1.545   7.813   0.776
 7713SOL    HW125146   1.636   7.838   0.791
 7713SOL    HW225147   1.501   7.830   0.859
 7714SOL     OW25148   4.143   8.144   4.578
 7714SOL    HW125149   4.135   8.179   4.666
 7714SOL    HW225150   4.101   8.058   4.582
 7715SOL     OW25151   1.769   9.459   5.529
 7715SOL    HW125152   1.797   9.550   5.532
 7715SOL    HW225153   1.792   9.424   5.615
 7716SOL     OW25154   9.449  10.439   3.322
 7716SOL    HW125155   9.520  10.503   3.325
 7716SOL    HW225156   9.416  10.436   3.411
 7717SOL     OW25157   4.445   0.795   1.033
 7717SOL    HW125158   4.448   0.733   1.106
 7717SOL    HW225159   4.410   0.875   1.070
 7718SOL     OW25160   8.766   1.170   3.856
 7718SOL    HW125161   8.686   1.206   3.817
 7718SOL    HW225162   8.809   1.124   3.783
 7719SOL     OW25163   2.432   6.116   4.800
 7719SOL    HW125164   2.497   6.148   4.737
 7719SOL    HW225165   2.479   6.113   4.883
 7720SOL     OW25166   5.677   4.506   1.865
 7720SOL    HW125167   5.623   4.579   1.894
 7720SOL    HW225168   5.669   4.506   1.769
 7721SOL     OW25169   6.933   2.272   1.436
 7721SOL    HW125170   7.011   2.325   1.422
 7721SOL    HW225171   6.964   2.196   1.486
 7722SOL     OW25172   5.581   5.975   4.692
 7722SOL    HW125173   5.649   5.914   4.721
 7722SOL    HW225174   5.528   5.924   4.631
 7723SOL     OW25175   5.849   9.699  10.297
 7723SOL    HW125176   5.804   9.655  10.369
 7723SOL    HW225177   5.942   9.688  10.316
 7724SOL     OW25178   3.223   1.088   1.624
 7724SOL    HW125179   3.165   1.014   1.609
 7724SOL    HW225180   3.169   1.152   1.669
 7725SOL     OW25181   8.332   6.293   6.482
 7725SOL    HW125182   8.238   6.276   6.486
 7725SOL    HW225183   8.342   6.384   6.510
 7726SOL     OW25184   6.562   2.350   1.795
 7726SOL    HW125185   6.502   2.367   1.722
 7726SOL    HW225186   6.644   2.325   1.752
 7727SOL     OW25187  10.168   0.894   6.310
 7727SOL    HW125188  10.153   0.853   6.395
 7727SOL    HW225189  10.174   0.987   6.329
 7728SOL     OW25190   0.024   8.427   4.031
 7728SOL    HW125191   0.076   8.482   4.089
 7728SOL    HW225192   0.085   8.360   4.000
 7729SOL     OW25193   6.444   7.345   8.561
 7729SOL    HW125194   6.460   7.311   8.649
 7729SOL    HW225195   6.349   7.356   8.556
 7730SOL     OW25196   0.876   6.440   5.935
 7730SOL    HW125197   0.853   6.509   5.872
 7730SOL    HW225198   0.949   6.393   5.893
 7731SOL     OW25199   9.903  10.359   1.720
 7731SOL    HW125200   9.894  10.432   1.780
 7731SOL    HW225201   9.814  10.341   1.691
 7732SOL     OW25202   2.658   1.249   1.788
 7732SOL    HW125203   2.658   1.184   1.858
 7732SOL    HW225204   2.604   1.210   1.719
 7733SOL     OW25205   6.999   1.946   2.781
 7733SOL    HW125206   7.087   1.917   2.806
 7733SOL    HW225207   6.991   2.033   2.820
 7734SOL     OW25208   5.038   3.556  11.014
 7734SOL    HW125209   4.989   3.561  11.096
 7734SOL    HW225210   5.008   3.475  10.973
 7735SOL     OW25211   0.200   3.277   4.623
 7735SOL    HW125212   0.256   3.238   4.556
 7735SOL    HW225213   0.149   3.343   4.576
 7736SOL     OW25214   5.172   4.241   7.126
 7736SOL    HW125215   5.145   4.254   7.217
 7736SOL    HW225216   5.141   4.153   7.104
 7737SOL     OW25217   2.211   0.605   2.293
 7737SOL    HW125218   2.306   0.612   2.282
 7737SOL    HW225219   2.189   0.671   2.359
 7738SOL     OW25220   4.536   7.160   0.253
 7738SOL    HW125221   4.495   7.101   0.317
 7738SOL    HW225222   4.521   7.248   0.287
 7739SOL     OW25223   8.945   6.289   1.411
 7739SOL    HW125224   9.000   6.363   1.436
 7739SOL    HW225225   8.997   6.211   1.433
 7740SOL     OW25226   2.124   0.917   4.708
 7740SOL    HW125227   2.190   0.956   4.651
 7740SOL    HW225228   2.066   0.869   4.648
 7741SOL     OW25229   1.640   8.324   3.719
 7741SOL    HW125230   1.654   8.388   3.649
 7741SOL    HW225231   1.723   8.276   3.725
 7742SOL     OW25232  10.694   4.386  11.061
 7742SOL    HW125233  10.614   4.370  11.111
 7742SOL    HW225234  10.668   4.376  10.969
 7743SOL     OW25235   7.454   1.994   0.733
 7743SOL    HW125236   7.529   1.965   0.681
 7743SOL    HW225237   7.385   2.009   0.668
 7744SOL     OW25238   1.255   1.664  10.677
 7744SOL    HW125239   1.192   1.661  10.749
 7744SOL    HW225240   1.243   1.750  10.638
 7745SOL     OW25241  10.196   3.790   1.749
 7745SOL    HW125242  10.200   3.879   1.714
 7745SOL    HW225243  10.287   3.759   1.747
 7746SOL     OW25244   6.456   0.759   7.459
 7746SOL    HW125245   6.543   0.766   7.498
 7746SOL    HW225246   6.445   0.665   7.443
 7747SOL     OW25247   6.916   1.311   6.581
 7747SOL    HW125248   6.845   1.261   6.539
 7747SOL    HW225249   6.878   1.396   6.600
 7748SOL     OW25250   7.308   5.136  10.072
 7748SOL    HW125251   7.357   5.218  10.081
 7748SOL    HW225252   7.230   5.160  10.022
 7749SOL     OW25253   4.463   0.471  10.247
 7749SOL    HW125254   4.403   0.536  10.283
 7749SOL    HW225255   4.464   0.400  10.311
 7750SOL     OW25256   1.893   3.126   6.685
 7750SOL    HW125257   1.834   3.075   6.630
 7750SOL    HW225258   1.836   3.183   6.735
 7751SOL     OW25259   0.815   1.941   3.134
 7751SOL    HW125260   0.757   1.964   3.061
 7751SOL    HW225261   0.756   1.914   3.204
 7752SOL     OW25262   1.986   9.625   5.887
 7752SOL    HW125263   2.038   9.591   5.960
 7752SOL    HW225264   1.973   9.717   5.907
 7753SOL     OW25265   8.466   7.784   2.284
 7753SOL    HW125266   8.382   7.762   2.323
 7753SOL    HW225267   8.519   7.704   2.294
 7754SOL     OW25268   4.636  10.579   6.281
 7754SOL    HW125269   4.622  10.489   6.311
 7754SOL    HW225270   4.667  10.626   6.358
 7755SOL     OW25271   7.340   2.729   3.959
 7755SOL    HW125272   7.360   2.653   4.013
 7755SOL    HW225273   7.253   2.756   3.987
 7756SOL     OW25274  10.020   3.286   7.801
 7756SOL    HW125275  10.089   3.285   7.735
 7756SOL    HW225276  10.002   3.378   7.816
 7757SOL     OW25277   4.308   8.689   5.156
 7757SOL    HW125278   4.214   8.707   5.150
 7757SOL    HW225279   4.339   8.693   5.065
 7758SOL     OW25280   7.345   1.202   0.274
 7758SOL    HW125281   7.406   1.266   0.311
 7758SOL    HW225282   7.267   1.209   0.329
 7759SOL     OW25283   4.671   2.477   1.000
 7759SOL    HW125284   4.613   2.548   1.025
 7759SOL    HW225285   4.744   2.481   1.061
 7760SOL     OW25286   2.289   2.377   2.832
 7760SOL    HW125287   2.264   2.420   2.750
 7760SOL    HW225288   2.291   2.447   2.897
 7761SOL     OW25289   5.960   9.959   3.658
 7761SOL    HW125290   5.946  10.009   3.738
 7761SOL    HW225291   5.953  10.023   3.587
 7762SOL     OW25292   2.881   8.274   0.908
 7762SOL    HW125293   2.812   8.330   0.873
 7762SOL    HW225294   2.929   8.330   0.968
 7763SOL     OW25295   3.204   9.251   9.161
 7763SOL    HW125296   3.141   9.283   9.096
 7763SOL    HW225297   3.272   9.318   9.164
 7764SOL     OW25298   0.694   9.112   0.937
 7764SOL    HW125299   0.673   9.200   0.966
 7764SOL    HW225300   0.609   9.069   0.928
 7765SOL     OW25301   1.245   7.283   9.682
 7765SOL    HW125302   1.192   7.353   9.644
 7765SOL    HW225303   1.312   7.265   9.616
 7766SOL     OW25304   3.036   8.994   0.826
 7766SOL    HW125305   3.047   8.900   0.808
 7766SOL    HW225306   3.093   9.036   0.762
 7767SOL     OW25307   9.437  10.945   0.529
 7767SOL    HW125308   9.353  10.945   0.575
 7767SOL    HW225309   9.444  10.857   0.491
 7768SOL     OW25310   4.800   0.131   1.332
 7768SOL    HW125311   4.889   0.133   1.297
 7768SOL    HW225312   4.773   0.223   1.334
 7769SOL     OW25313   4.236   1.780   4.094
 7769SOL    HW125314   4.219   1.686   4.099
 7769SOL    HW225315   4.237   1.809   4.185
 7770SOL     OW25316   4.105   8.426  10.045
 7770SOL    HW125317   4.153   8.473   9.977
 7770SOL    HW225318   4.051   8.493  10.087
 7771SOL     OW25319   2.133   0.064   4.846
 7771SOL    HW125320   2.141   0.058   4.750
 7771SOL    HW225321   2.133   0.158   4.864
 7772SOL     OW25322   0.743   1.645   4.498
 7772SOL    HW125323   0.659   1.613   4.466
 7772SOL    HW225324   0.805   1.624   4.427
 7773SOL     OW25325   4.088   1.085   1.891
 7773SOL    HW125326   4.178   1.056   1.907
 7773SOL    HW225327   4.072   1.064   1.799
 7774SOL     OW25328   1.526  10.640   5.536
 7774SOL    HW125329   1.575  10.713   5.574
 7774SOL    HW225330   1.508  10.668   5.446
 7775SOL     OW25331   6.979   8.255   2.319
 7775SOL    HW125332   7.047   8.227   2.380
 7775SOL    HW225333   7.013   8.336   2.281
 7776SOL     OW25334   2.411   7.449   2.155
 7776SOL    HW125335   2.500   7.430   2.124
 7776SOL    HW225336   2.387   7.372   2.207
 7777SOL     OW25337   4.693   3.810   4.534
 7777SOL    HW125338   4.691   3.829   4.627
 7777SOL    HW225339   4.715   3.893   4.492
 7778SOL     OW25340   5.835   6.412   3.166
 7778SOL    HW125341   5.813   6.453   3.249
 7778SOL    HW225342   5.801   6.322   3.174
 7779SOL     OW25343   1.375   2.083   0.865
 7779SOL    HW125344   1.460   2.126   0.870
 7779SOL    HW225345   1.377   2.017   0.934
 7780SOL     OW25346   3.199   2.335   9.823
 7780SOL    HW125347   3.215   2.241   9.816
 7780SOL    HW225348   3.130   2.343   9.889
 7781SOL     OW25349   6.318   8.635   0.568
 7781SOL    HW125350   6.225   8.618   0.578
 7781SOL    HW225351   6.343   8.682   0.647
 7782SOL     OW25352   6.165   8.445   8.374
 7782SOL    HW125353   6.248   8.414   8.338
 7782SOL    HW225354   6.106   8.448   8.298
 7783SOL     OW25355   3.148   7.811   5.737
 7783SOL    HW125356   3.165   7.836   5.646
 7783SOL    HW225357   3.226   7.761   5.763
 7784SOL     OW25358   2.706   3.818   3.040
 7784SOL    HW125359   2.636   3.805   2.976
 7784SOL    HW225360   2.738   3.729   3.058
 7785SOL     OW25361   5.208   6.580   3.275
 7785SOL    HW125362   5.132   6.540   3.232
 7785SOL    HW225363   5.251   6.630   3.205
 7786SOL     OW25364   2.803  10.715   9.535
 7786SOL    HW125365   2.889  10.672   9.537
 7786SOL    HW225366   2.754  10.667   9.468
 7787SOL     OW25367   7.654   7.331   2.314
 7787SOL    HW125368   7.643   7.326   2.409
 7787SOL    HW225369   7.566   7.346   2.280
 7788SOL     OW25370   2.509   9.814   4.666
 7788SOL    HW125371   2.554   9.785   4.745
 7788SOL    HW225372   2.494   9.907   4.679
 7789SOL     OW25373   1.052   9.783   1.019
 7789SOL    HW125374   1.013   9.805   0.934
 7789SOL    HW225375   0.987   9.727   1.061
 7790SOL     OW25376   9.212   3.867   1.441
 7790SOL    HW125377   9.240   3.811   1.513
 7790SOL    HW225378   9.208   3.954   1.479
 7791SOL     OW25379   0.186   9.782   2.941
 7791SOL    HW125380   0.185   9.870   2.979
 7791SOL    HW225381   0.275   9.750   2.957
 7792SOL     OW25382   1.825   5.141   2.707
 7792SOL    HW125383   1.731   5.134   2.694
 7792SOL    HW225384   1.860   5.160   2.620
 7793SOL     OW25385   2.776   7.091   5.244
 7793SOL    HW125386   2.857   7.141   5.234
 7793SOL    HW225387   2.752   7.103   5.336
 7794SOL     OW25388  10.513   3.617  10.848
 7794SOL    HW125389  10.444   3.683  10.849
 7794SOL    HW225390  10.590   3.663  10.813
 7795SOL     OW25391   6.377   0.908  10.602
 7795SOL    HW125392   6.433   0.934  10.675
 7795SOL    HW225393   6.326   0.986  10.582
 7796SOL     OW25394   4.093   8.922   5.750
 7796SOL    HW125395   4.038   8.996   5.775
 7796SOL    HW225396   4.104   8.872   5.831
 7797SOL     OW25397   3.001   9.906   9.631
 7797SOL    HW125398   2.997   9.912   9.726
 7797SOL    HW225399   3.087   9.942   9.608
 7798SOL     OW25400   9.996  11.017   1.728
 7798SOL    HW125401  10.076  11.017   1.675
 7798SOL    HW225402  10.026  11.036   1.816
 7799SOL     OW25403   4.685   5.479   0.365
 7799SOL    HW125404   4.616   5.480   0.299
 7799SOL    HW225405   4.766   5.490   0.315
 7800SOL     OW25406   0.430  10.577   3.915
 7800SOL    HW125407   0.347  10.530   3.909
 7800SOL    HW225408   0.457  10.590   3.824
 7801SOL     OW25409   0.316   9.425  11.051
 7801SOL    HW125410   0.333   9.469  10.968
 7801SOL    HW225411   0.240   9.470  11.086
 7802SOL     OW25412   2.241   7.726   8.626
 7802SOL    HW125413   2.262   7.795   8.688
 7802SOL    HW225414   2.146   7.714   8.634
 7803SOL     OW25415   6.506   8.936   8.776
 7803SOL    HW125416   6.451   8.859   8.792
 7803SOL    HW225417   6.457   8.987   8.711
 7804SOL     OW25418   7.364   9.729   0.176
 7804SOL    HW125419   7.269   9.738   0.171
 7804SOL    HW225420   7.387   9.672   0.103
 7805SOL     OW25421   2.855   1.865   8.260
 7805SOL    HW125422   2.788   1.875   8.327
 7805SOL    HW225423   2.841   1.939   8.201
 7806SOL     OW25424   3.680  10.804   3.930
 7806SOL    HW125425   3.756  10.770   3.977
 7806SOL    HW225426   3.654  10.882   3.979
 7807SOL     OW25427   2.213  10.481   4.376
 7807SOL    HW125428   2.286  10.425   4.403
 7807SOL    HW225429   2.136  10.443   4.419
 7808SOL     OW25430   5.368  10.411   5.851
 7808SOL    HW125431   5.438  10.454   5.801
 7808SOL    HW225432   5.411  10.379   5.930
 7809SOL     OW25433   4.490   2.246   3.530
 7809SOL    HW125434   4.395   2.231   3.527
 7809SOL    HW225435   4.504   2.322   3.474
 7810SOL     OW25436   1.505   7.239   1.890
 7810SOL    HW125437   1.513   7.202   1.802
 7810SOL    HW225438   1.589   7.220   1.932
 7811SOL     OW25439   0.665  10.466   1.102
 7811SOL    HW125440   0.710  10.398   1.051
 7811SOL    HW225441   0.735  10.508   1.152
 7812SOL     OW25442   6.216   5.056   0.240
 7812SOL    HW125443   6.164   5.035   0.162
 7812SOL    HW225444   6.216   5.151   0.244
 7813SOL     OW25445   3.832   4.505   5.707
 7813SOL    HW125446   3.878   4.526   5.788
 7813SOL    HW225447   3.875   4.559   5.640
 7814SOL     OW25448   5.046   3.210   7.720
 7814SOL    HW125449   4.956   3.231   7.745
 7814SOL    HW225450   5.044   3.204   7.624
 7815SOL     OW25451   2.356   9.291   2.936
 7815SOL    HW125452   2.443   9.269   2.902
 7815SOL    HW225453   2.331   9.215   2.988
 7816SOL     OW25454   2.694   0.338   3.600
 7816SOL    HW125455   2.744   0.264   3.635
 7816SOL    HW225456   2.646   0.373   3.675
 7817SOL     OW25457   5.751  10.528   8.531
 7817SOL    HW125458   5.751  10.564   8.442
 7817SOL    HW225459   5.711  10.442   8.522
 7818SOL     OW25460  10.981   1.914   1.211
 7818SOL    HW125461  11.030   1.965   1.275
 7818SOL    HW225462  10.924   1.857   1.263
 7819SOL     OW25463   8.168   3.758   2.299
 7819SOL    HW125464   8.224   3.744   2.222
 7819SOL    HW225465   8.173   3.852   2.315
 7820SOL     OW25466   1.811   0.200   4.228
 7820SOL    HW125467   1.771   0.242   4.152
 7820SOL    HW225468   1.747   0.134   4.255
 7821SOL     OW25469  10.720   7.889   2.268
 7821SOL    HW125470  10.697   7.802   2.235
 7821SOL    HW225471  10.729   7.877   2.362
 7822SOL     OW25472   0.838  10.435   7.620
 7822SOL    HW125473   0.811  10.411   7.531
 7822SOL    HW225474   0.819  10.357   7.672
 7823SOL     OW25475   0.789   8.250   3.536
 7823SOL    HW125476   0.747   8.333   3.515
 7823SOL    HW225477   0.811   8.256   3.629
 7824SOL     OW25478   0.432   6.602   6.909
 7824SOL    HW125479   0.464   6.688   6.935
 7824SOL    HW225480   0.414   6.610   6.815
 7825SOL     OW25481   3.909  10.479   0.378
 7825SOL    HW125482   3.981  10.456   0.437
 7825SOL    HW225483   3.862  10.549   0.423
 7826SOL     OW25484   5.077   6.978   9.803
 7826SOL    HW125485   5.118   6.907   9.853
 7826SOL    HW225486   5.151   7.026   9.765
 7827SOL     OW25487   2.951   9.333   4.577
 7827SOL    HW125488   2.888   9.306   4.510
 7827SOL    HW225489   3.034   9.342   4.530
 7828SOL     OW25490   8.136   2.426  11.086
 7828SOL    HW125491   8.173   2.514  11.088
 7828SOL    HW225492   8.054   2.435  11.038
 7829SOL     OW25493   7.167   0.175   4.735
 7829SOL    HW125494   7.160   0.234   4.809
 7829SOL    HW225495   7.260   0.174   4.714
 7830SOL     OW25496   2.279   2.834   1.521
 7830SOL    HW125497   2.334   2.905   1.488
 7830SOL    HW225498   2.339   2.779   1.573
 7831SOL     OW25499   3.986   8.375   8.350
 7831SOL    HW125500   4.014   8.347   8.262
 7831SOL    HW225501   3.912   8.318   8.370
 7832SOL     OW25502   2.251   0.147   7.526
 7832SOL    HW125503   2.227   0.199   7.449
 7832SOL    HW225504   2.169   0.105   7.553
 7833SOL     OW25505   6.279   0.544   1.227
 7833SOL    HW125506   6.256   0.636   1.212
 7833SOL    HW225507   6.317   0.515   1.144
 7834SOL     OW25508   3.540   1.556   7.834
 7834SOL    HW125509   3.502   1.540   7.920
 7834SOL    HW225510   3.477   1.519   7.772
 7835SOL     OW25511   8.301   8.534   0.825
 7835SOL    HW125512   8.237   8.587   0.778
 7835SOL    HW225513   8.255   8.503   0.902
 7836SOL     OW25514   8.750   6.343   8.876
 7836SOL    HW125515   8.700   6.421   8.899
 7836SOL    HW225516   8.819   6.337   8.942
 7837SOL     OW25517   1.242   1.728   4.737
 7837SOL    HW125518   1.209   1.762   4.820
 7837SOL    HW225519   1.223   1.796   4.673
 7838SOL     OW25520   0.546   4.339   4.717
 7838SOL    HW125521   0.458   4.318   4.749
 7838SOL    HW225522   0.548   4.434   4.712
 7839SOL     OW25523   0.431   6.203   6.663
 7839SOL    HW125524   0.383   6.120   6.653
 7839SOL    HW225525   0.500   6.183   6.726
 7840SOL     OW25526   2.731   2.993   1.235
 7840SOL    HW125527   2.665   2.929   1.262
 7840SOL    HW225528   2.778   2.949   1.163
 7841SOL     OW25529   5.381   0.874   3.285
 7841SOL    HW125530   5.336   0.945   3.240
 7841SOL    HW225531   5.351   0.795   3.240
 7842SOL     OW25532   2.002   0.418   8.200
 7842SOL    HW125533   2.035   0.508   8.200
 7842SOL    HW225534   2.078   0.365   8.225
 7843SOL     OW25535   2.585   9.170   2.824
 7843SOL    HW125536   2.673   9.190   2.793
 7843SOL    HW225537   2.597   9.093   2.880
 7844SOL     OW25538   7.851   7.988   8.238
 7844SOL    HW125539   7.847   7.903   8.193
 7844SOL    HW225540   7.902   7.971   8.317
 7845SOL     OW25541   1.744   3.894  11.084
 7845SOL    HW125542   1.703   3.857  11.162
 7845SOL    HW225543   1.677   3.950  11.046
 7846SOL     OW25544   3.360   0.278   5.753
 7846SOL    HW125545   3.445   0.273   5.709
 7846SOL    HW225546   3.318   0.194   5.733
 7847SOL     OW25547   6.562   3.872   8.665
 7847SOL    HW125548   6.537   3.964   8.667
 7847SOL    HW225549   6.568   3.846   8.757
 7848SOL     OW25550   6.803   1.865   5.079
 7848SOL    HW125551   6.762   1.868   5.165
 7848SOL    HW225552   6.749   1.804   5.029
 7849SOL     OW25553   2.439   2.743   9.690
 7849SOL    HW125554   2.428   2.648   9.696
 7849SOL    HW225555   2.399   2.766   9.606
 7850SOL     OW25556   0.290   5.160   0.527
 7850SOL    HW125557   0.283   5.198   0.614
 7850SOL    HW225558   0.244   5.076   0.534
 7851SOL     OW25559   3.327   0.482   6.253
 7851SOL    HW125560   3.356   0.404   6.300
 7851SOL    HW225561   3.234   0.467   6.237
 7852SOL     OW25562  10.506   1.035   3.529
 7852SOL    HW125563  10.478   1.051   3.619
 7852SOL    HW225564  10.511   0.939   3.522
 7853SOL     OW25565   2.952   9.508   0.919
 7853SOL    HW125566   3.020   9.442   0.931
 7853SOL    HW225567   2.884   9.463   0.869
 7854SOL     OW25568   6.041  10.616   0.041
 7854SOL    HW125569   5.949  10.617   0.066
 7854SOL    HW225570   6.044  10.662  -0.043
 7855SOL     OW25571   1.536   6.526   2.034
 7855SOL    HW125572   1.549   6.443   1.988
 7855SOL    HW225573   1.464   6.568   1.987
 7856SOL     OW25574   7.001  10.873   1.457
 7856SOL    HW125575   7.020  10.952   1.405
 7856SOL    HW225576   6.914  10.889   1.494
 7857SOL     OW25577   8.150   9.072   3.116
 7857SOL    HW125578   8.092   9.052   3.189
 7857SOL    HW225579   8.215   9.001   3.117
 7858SOL     OW25580   4.768   7.504   3.466
 7858SOL    HW125581   4.746   7.431   3.523
 7858SOL    HW225582   4.774   7.464   3.379
 7859SOL     OW25583   0.746   2.672   4.229
 7859SOL    HW125584   0.736   2.590   4.180
 7859SOL    HW225585   0.830   2.663   4.274
 7860SOL     OW25586   1.599   4.213   7.680
 7860SOL    HW125587   1.574   4.131   7.636
 7860SOL    HW225588   1.663   4.186   7.746
 7861SOL     OW25589   9.783   3.499   4.714
 7861SOL    HW125590   9.835   3.457   4.645
 7861SOL    HW225591   9.698   3.515   4.673
 7862SOL     OW25592   2.858   2.294   7.713
 7862SOL    HW125593   2.866   2.374   7.764
 7862SOL    HW225594   2.869   2.322   7.622
 7863SOL     OW25595   2.741   2.030   3.104
 7863SOL    HW125596   2.692   2.049   3.184
 7863SOL    HW225597   2.796   2.107   3.090
 7864SOL     OW25598   7.692   8.340   7.866
 7864SOL    HW125599   7.606   8.301   7.882
 7864SOL    HW225600   7.703   8.404   7.935
 7865SOL     OW25601   3.907   4.131   6.669
 7865SOL    HW125602   3.897   4.201   6.732
 7865SOL    HW225603   3.993   4.146   6.629
 7866SOL     OW25604   6.312   6.075  10.347
 7866SOL    HW125605   6.342   6.059  10.257
 7866SOL    HW225606   6.372   6.023  10.401
 7867SOL     OW25607  10.218   5.658   0.860
 7867SOL    HW125608  10.142   5.715   0.847
 7867SOL    HW225609  10.238   5.663   0.953
 7868SOL     OW25610   4.027   8.765   5.227
 7868SOL    HW125611   4.037   8.791   5.318
 7868SOL    HW225612   3.933   8.757   5.214
 7869SOL     OW25613   3.960   0.779   3.219
 7869SOL    HW125614   3.947   0.829   3.138
 7869SOL    HW225615   4.054   0.762   3.222
 7870SOL     OW25616   4.286   5.145  10.768
 7870SOL    HW125617   4.354   5.203  10.733
 7870SOL    HW225618   4.319   5.056  10.752
 7871SOL     OW25619   3.009   2.594  10.317
 7871SOL    HW125620   2.993   2.538  10.241
 7871SOL    HW225621   2.923   2.628  10.339
 7872SOL     OW25622   9.027   3.871   1.249
 7872SOL    HW125623   9.004   3.780   1.229
 7872SOL    HW225624   9.090   3.864   1.320
 7873SOL     OW25625   7.463  10.988   1.119
 7873SOL    HW125626   7.402  11.016   1.051
 7873SOL    HW225627   7.455  10.893   1.121
 7874SOL     OW25628   8.158   9.969   1.931
 7874SOL    HW125629   8.185  10.052   1.892
 7874SOL    HW225630   8.063   9.967   1.920
 7875SOL     OW25631   1.267   3.443   8.025
 7875SOL    HW125632   1.211   3.513   8.057
 7875SOL    HW225633   1.255   3.371   8.087
 7876SOL     OW25634   7.652   8.421   3.481
 7876SOL    HW125635   7.595   8.354   3.519
 7876SOL    HW225636   7.682   8.382   3.398
 7877SOL     OW25637   9.471   5.095   2.539
 7877SOL    HW125638   9.554   5.141   2.528
 7877SOL    HW225639   9.484   5.011   2.494
 7878SOL     OW25640   2.950   7.277   1.970
 7878SOL    HW125641   2.976   7.189   1.943
 7878SOL    HW225642   2.903   7.264   2.052
 7879SOL     OW25643   7.487   3.228   8.551
 7879SOL    HW125644   7.513   3.136   8.559
 7879SOL    HW225645   7.569   3.276   8.562
 7880SOL     OW25646   1.894   1.938   7.352
 7880SOL    HW125647   1.900   1.890   7.435
 7880SOL    HW225648   1.840   1.882   7.296
 7881SOL     OW25649   0.014   1.623   9.002
 7881SOL    HW125650   0.085   1.617   9.066
 7881SOL    HW225651  -0.013   1.715   9.003
 7882SOL     OW25652   3.310   7.568   3.978
 7882SOL    HW125653   3.224   7.609   3.973
 7882SOL    HW225654   3.354   7.611   4.051
 7883SOL     OW25655  10.796   0.020   2.257
 7883SOL    HW125656  10.802  -0.033   2.177
 7883SOL    HW225657  10.776   0.108   2.225
 7884SOL     OW25658  11.067   5.032   0.144
 7884SOL    HW125659  11.133   4.976   0.103
 7884SOL    HW225660  11.042   5.093   0.076
 7885SOL     OW25661   2.709   6.711  10.884
 7885SOL    HW125662   2.654   6.742  10.955
 7885SOL    HW225663   2.667   6.744  10.804
 7886SOL     OW25664   2.491  10.479   4.739
 7886SOL    HW125665   2.499  10.508   4.830
 7886SOL    HW225666   2.579  10.492   4.702
 7887SOL     OW25667   3.617  10.389  10.752
 7887SOL    HW125668   3.680  10.327  10.790
 7887SOL    HW225669   3.670  10.446  10.697
 7888SOL     OW25670  10.767   4.583   3.772
 7888SOL    HW125671  10.851   4.547   3.801
 7888SOL    HW225672  10.753   4.659   3.828
 7889SOL     OW25673   1.710   7.890   4.132
 7889SOL    HW125674   1.725   7.888   4.037
 7889SOL    HW225675   1.627   7.936   4.142
 7890SOL     OW25676   9.844   0.565   0.543
 7890SOL    HW125677   9.900   0.496   0.579
 7890SOL    HW225678   9.902   0.640   0.534
 7891SOL     OW25679   6.681   1.512   4.023
 7891SOL    HW125680   6.635   1.428   4.032
 7891SOL    HW225681   6.746   1.511   4.093
 7892SOL     OW25682   9.262   4.879   4.958
 7892SOL    HW125683   9.337   4.832   4.922
 7892SOL    HW225684   9.204   4.810   4.990
 7893SOL     OW25685   4.468   8.611   0.658
 7893SOL    HW125686   4.437   8.521   0.644
 7893SOL    HW225687   4.479   8.618   0.752
 7894SOL     OW25688   3.091   6.198   0.356
 7894SOL    HW125689   3.074   6.211   0.449
 7894SOL    HW225690   3.186   6.211   0.347
 7895SOL     OW25691   1.839   1.179   4.777
 7895SOL    HW125692   1.785   1.254   4.752
 7895SOL    HW225693   1.918   1.187   4.723
 7896SOL     OW25694   6.810   0.233   7.812
 7896SOL    HW125695   6.894   0.230   7.858
 7896SOL    HW225696   6.764   0.308   7.850
 7897SOL     OW25697   0.807   3.980   3.887
 7897SOL    HW125698   0.821   4.003   3.979
 7897SOL    HW225699   0.784   4.062   3.844
 7898SOL     OW25700   5.485   2.575   6.845
 7898SOL    HW125701   5.502   2.622   6.763
 7898SOL    HW225702   5.534   2.493   6.836
 7899SOL     OW25703   3.265   1.261   7.876
 7899SOL    HW125704   3.258   1.174   7.837
 7899SOL    HW225705   3.212   1.256   7.955
 7900SOL     OW25706   4.480   7.195   5.424
 7900SOL    HW125707   4.392   7.174   5.454
 7900SOL    HW225708   4.509   7.116   5.379
 7901SOL     OW25709   5.168   6.453   6.339
 7901SOL    HW125710   5.254   6.477   6.303
 7901SOL    HW225711   5.144   6.373   6.291
 7902SOL     OW25712  10.632   0.239   9.648
 7902SOL    HW125713  10.675   0.226   9.563
 7902SOL    HW225714  10.584   0.321   9.638
 7903SOL     OW25715   5.656   3.899   2.427
 7903SOL    HW125716   5.718   3.953   2.476
 7903SOL    HW225717   5.593   3.869   2.492
 7904SOL     OW25718   0.404   2.578   0.058
 7904SOL    HW125719   0.367   2.560   0.145
 7904SOL    HW225720   0.333   2.558  -0.002
 7905SOL     OW25721   6.743   0.128   3.782
 7905SOL    HW125722   6.829   0.171   3.783
 7905SOL    HW225723   6.683   0.193   3.818
 7906SOL     OW25724   0.307   2.074   4.736
 7906SOL    HW125725   0.304   2.029   4.821
 7906SOL    HW225726   0.261   2.156   4.750
 7907SOL     OW25727   0.127   1.616   5.666
 7907SOL    HW125728   0.157   1.525   5.668
 7907SOL    HW225729   0.033   1.611   5.686
 7908SOL     OW25730  10.225  10.656   4.025
 7908SOL    HW125731  10.154  10.666   4.088
 7908SOL    HW225732  10.256  10.566   4.037
 7909SOL     OW25733   8.060   4.497   7.131
 7909SOL    HW125734   8.023   4.445   7.202
 7909SOL    HW225735   7.989   4.506   7.068
 7910SOL     OW25736   2.915   3.048   4.554
 7910SOL    HW125737   2.964   3.079   4.630
 7910SOL    HW225738   2.825   3.040   4.585
 7911SOL     OW25739   3.152   3.622   8.253
 7911SOL    HW125740   3.131   3.610   8.345
 7911SOL    HW225741   3.217   3.554   8.234
 7912SOL     OW25742   4.535   8.090   0.876
 7912SOL    HW125743   4.584   8.152   0.822
 7912SOL    HW225744   4.499   8.142   0.947
 7913SOL     OW25745   5.304  10.873   5.323
 7913SOL    HW125746   5.345  10.876   5.409
 7913SOL    HW225747   5.333  10.954   5.280
 7914SOL     OW25748   9.873   9.151   6.885
 7914SOL    HW125749   9.907   9.181   6.969
 7914SOL    HW225750   9.841   9.230   6.842
 7915SOL     OW25751   4.223   0.867   7.926
 7915SOL    HW125752   4.254   0.884   8.015
 7915SOL    HW225753   4.303   0.857   7.874
 7916SOL     OW25754   2.549  10.126   6.196
 7916SOL    HW125755   2.582  10.096   6.111
 7916SOL    HW225756   2.628  10.147   6.246
 7917SOL     OW25757   4.317   7.386   2.299
 7917SOL    HW125758   4.361   7.379   2.214
 7917SOL    HW225759   4.296   7.295   2.323
 7918SOL     OW25760   2.298   4.601   7.232
 7918SOL    HW125761   2.373   4.658   7.249
 7918SOL    HW225762   2.291   4.599   7.136
 7919SOL     OW25763   2.592   1.502   1.804
 7919SOL    HW125764   2.625   1.412   1.802
 7919SOL    HW225765   2.548   1.510   1.888
 7920SOL     OW25766   6.998   9.282   2.329
 7920SOL    HW125767   6.994   9.196   2.371
 7920SOL    HW225768   7.049   9.336   2.389
 7921SOL     OW25769   2.635  10.833   9.732
 7921SOL    HW125770   2.723  10.809   9.704
 7921SOL    HW225771   2.629  10.803   9.822
 7922SOL     OW25772   6.938   7.309   0.613
 7922SOL    HW125773   7.012   7.321   0.672
 7922SOL    HW225774   6.883   7.386   0.628
 7923SOL     OW25775   2.078   2.510   4.317
 7923SOL    HW125776   2.127   2.465   4.386
 7923SOL    HW225777   2.050   2.440   4.258
 7924SOL     OW25778  11.017   7.347   7.096
 7924SOL    HW125779  11.094   7.375   7.145
 7924SOL    HW225780  10.944   7.394   7.137
 7925SOL     OW25781   1.102  10.170   9.115
 7925SOL    HW125782   1.157  10.248   9.119
 7925SOL    HW225783   1.058  10.176   9.030
 7926SOL     OW25784   2.787   4.692  10.538
 7926SOL    HW125785   2.865   4.686  10.593
 7926SOL    HW225786   2.788   4.781  10.505
 7927SOL     OW25787   7.091   2.931   3.315
 7927SOL    HW125788   7.034   3.001   3.283
 7927SOL    HW225789   7.045   2.895   3.391
 7928SOL     OW25790   7.536   3.818   1.966
 7928SOL    HW125791   7.516   3.902   1.925
 7928SOL    HW225792   7.451   3.776   1.979
 7929SOL     OW25793   3.576  11.047   0.609
 7929SOL    HW125794   3.566  10.963   0.654
 7929SOL    HW225795   3.669  11.069   0.620
 7930SOL     OW25796   7.739   8.157   2.191
 7930SOL    HW125797   7.798   8.228   2.214
 7930SOL    HW225798   7.743   8.097   2.265
 7931SOL     OW25799   5.115   0.507   4.944
 7931SOL    HW125800   5.137   0.420   4.977
 7931SOL    HW225801   5.030   0.495   4.901
 7932SOL     OW25802   2.069   5.209   6.570
 7932SOL    HW125803   2.142   5.152   6.542
 7932SOL    HW225804   2.063   5.195   6.664
 7933SOL     OW25805   0.288   5.740   4.762
 7933SOL    HW125806   0.311   5.811   4.821
 7933SOL    HW225807   0.329   5.764   4.679
 7934SOL     OW25808   4.603   7.528   5.441
 7934SOL    HW125809   4.510   7.544   5.456
 7934SOL    HW225810   4.629   7.469   5.512
 7935SOL     OW25811   5.254   2.152   9.599
 7935SOL    HW125812   5.206   2.079   9.639
 7935SOL    HW225813   5.211   2.165   9.514
 7936SOL     OW25814   5.504   9.286   6.802
 7936SOL    HW125815   5.561   9.209   6.799
 7936SOL    HW225816   5.526   9.329   6.884
 7937SOL     OW25817   3.336   9.224  10.645
 7937SOL    HW125818   3.337   9.186  10.733
 7937SOL    HW225819   3.354   9.150  10.587
 7938SOL     OW25820   3.823   3.479   8.941
 7938SOL    HW125821   3.917   3.479   8.960
 7938SOL    HW225822   3.792   3.394   8.974
 7939SOL     OW25823   2.451  10.635   1.652
 7939SOL    HW125824   2.515  10.595   1.592
 7939SOL    HW225825   2.369  10.588   1.635
 7940SOL     OW25826   0.765  10.848   2.373
 7940SOL    HW125827   0.670  10.845   2.366
 7940SOL    HW225828   0.793  10.758   2.358
 7941SOL     OW25829   4.183   6.614   0.658
 7941SOL    HW125830   4.271   6.589   0.686
 7941SOL    HW225831   4.186   6.609   0.562
 7942SOL     OW25832   4.137   2.963   4.130
 7942SOL    HW125833   4.178   2.921   4.205
 7942SOL    HW225834   4.051   2.921   4.123
 7943SOL     OW25835   1.929   8.735   1.962
 7943SOL    HW125836   1.879   8.670   2.011
 7943SOL    HW225837   1.864   8.798   1.932
 7944SOL     OW25838   3.829   0.635   8.177
 7944SOL    HW125839   3.812   0.583   8.255
 7944SOL    HW225840   3.742   0.657   8.143
 7945SOL     OW25841   7.292   4.401   9.716
 7945SOL    HW125842   7.207   4.365   9.740
 7945SOL    HW225843   7.291   4.490   9.751
 7946SOL     OW25844   1.979   3.578   0.446
 7946SOL    HW125845   1.921   3.543   0.513
 7946SOL    HW225846   2.014   3.658   0.484
 7947SOL     OW25847   3.869   9.884   5.471
 7947SOL    HW125848   3.785   9.915   5.503
 7947SOL    HW225849   3.913   9.962   5.438
 7948SOL     OW25850   0.050   7.942   1.404
 7948SOL    HW125851  -0.038   7.903   1.404
 7948SOL    HW225852   0.090   7.912   1.485
 7949SOL     OW25853   3.732   9.320   1.169
 7949SOL    HW125854   3.643   9.344   1.145
 7949SOL    HW225855   3.770   9.400   1.203
 7950SOL     OW25856   2.105   3.687   1.860
 7950SOL    HW125857   2.084   3.742   1.935
 7950SOL    HW225858   2.042   3.615   1.865
 7951SOL     OW25859   3.972   4.085   4.216
 7951SOL    HW125860   3.995   4.087   4.123
 7951SOL    HW225861   4.018   4.160   4.254
 7952SOL     OW25862   1.494  10.692   3.716
 7952SOL    HW125863   1.438  10.763   3.685
 7952SOL    HW225864   1.574  10.736   3.744
 7953SOL     OW25865   5.404   3.182   3.625
 7953SOL    HW125866   5.476   3.220   3.574
 7953SOL    HW225867   5.333   3.172   3.561
 7954SOL     OW25868   8.834   1.153   2.169
 7954SOL    HW125869   8.774   1.216   2.209
 7954SOL    HW225870   8.921   1.188   2.186
 7955SOL     OW25871   0.595   0.986   6.483
 7955SOL    HW125872   0.558   0.905   6.518
 7955SOL    HW225873   0.610   1.041   6.559
 7956SOL     OW25874  11.036   8.138   8.313
 7956SOL    HW125875  10.975   8.064   8.314
 7956SOL    HW225876  11.090   8.123   8.235
 7957SOL     OW25877  11.042   7.685   9.822
 7957SOL    HW125878  10.952   7.717   9.829
 7957SOL    HW225879  11.070   7.670   9.912
 7958SOL     OW25880  11.059   2.846   9.330
 7958SOL    HW125881  11.028   2.874   9.416
 7958SOL    HW225882  10.980   2.842   9.276
 7959SOL     OW25883   0.561   2.417   8.644
 7959SOL    HW125884   0.641   2.443   8.689
 7959SOL    HW225885   0.508   2.375   8.711
 7960SOL     OW25886   4.252  10.137   6.388
 7960SOL    HW125887   4.260  10.192   6.310
 7960SOL    HW225888   4.335  10.149   6.434
 7961SOL     OW25889   8.449   6.854   7.492
 7961SOL    HW125890   8.437   6.760   7.474
 7961SOL    HW225891   8.446   6.861   7.587
 7962SOL     OW25892   5.223  10.413   8.293
 7962SOL    HW125893   5.228  10.494   8.344
 7962SOL    HW225894   5.303  10.365   8.315
 7963SOL     OW25895   1.365   2.255   1.607
 7963SOL    HW125896   1.354   2.346   1.582
 7963SOL    HW225897   1.283   2.232   1.650
 7964SOL     OW25898   3.507   1.274   5.176
 7964SOL    HW125899   3.512   1.232   5.090
 7964SOL    HW225900   3.598   1.275   5.206
 7965SOL     OW25901   7.536   1.822   1.302
 7965SOL    HW125902   7.573   1.757   1.361
 7965SOL    HW225903   7.462   1.859   1.350
 7966SOL     OW25904   2.206   8.285   1.641
 7966SOL    HW125905   2.216   8.195   1.609
 7966SOL    HW225906   2.285   8.300   1.693
 7967SOL     OW25907   8.425   8.399   7.653
 7967SOL    HW125908   8.481   8.353   7.715
 7967SOL    HW225909   8.468   8.483   7.639
 7968SOL     OW25910   9.252   0.067   4.297
 7968SOL    HW125911   9.242   0.033   4.386
 7968SOL    HW225912   9.172   0.116   4.280
 7969SOL     OW25913   0.830   0.523   7.825
 7969SOL    HW125914   0.907   0.547   7.877
 7969SOL    HW225915   0.761   0.582   7.855
 7970SOL     OW25916   7.396   6.958   4.576
 7970SOL    HW125917   7.363   6.955   4.666
 7970SOL    HW225918   7.333   7.011   4.528
 7971SOL     OW25919   6.833   4.430   3.419
 7971SOL    HW125920   6.805   4.344   3.451
 7971SOL    HW225921   6.891   4.463   3.487
 7972SOL     OW25922   0.026   7.267   4.946
 7972SOL    HW125923   0.069   7.258   4.861
 7972SOL    HW225924  -0.032   7.342   4.936
 7973SOL     OW25925   0.470   0.258   4.496
 7973SOL    HW125926   0.420   0.257   4.414
 7973SOL    HW225927   0.455   0.171   4.534
 7974SOL     OW25928   1.126   8.805   1.032
 7974SOL    HW125929   1.127   8.783   1.125
 7974SOL    HW225930   1.042   8.848   1.018
 7975SOL     OW25931   2.577   4.136  10.107
 7975SOL    HW125932   2.651   4.196  10.098
 7975SOL    HW225933   2.592   4.069  10.040
 7976SOL     OW25934   3.977   4.340   7.576
 7976SOL    HW125935   3.923   4.303   7.646
 7976SOL    HW225936   3.938   4.306   7.495
 7977SOL     OW25937   9.558   3.883   4.520
 7977SOL    HW125938   9.532   3.960   4.570
 7977SOL    HW225939   9.628   3.914   4.463
 7978SOL     OW25940   6.642  10.311   6.412
 7978SOL    HW125941   6.711  10.274   6.467
 7978SOL    HW225942   6.689  10.356   6.342
 7979SOL     OW25943   1.808   4.577   8.936
 7979SOL    HW125944   1.737   4.517   8.913
 7979SOL    HW225945   1.887   4.524   8.927
 7980SOL     OW25946   5.480   5.008   8.606
 7980SOL    HW125947   5.498   5.070   8.535
 7980SOL    HW225948   5.483   5.060   8.686
 7981SOL     OW25949   7.001   3.919   8.758
 7981SOL    HW125950   7.022   3.825   8.756
 7981SOL    HW225951   7.051   3.953   8.832
 7982SOL     OW25952   0.167   8.438   7.097
 7982SOL    HW125953   0.221   8.432   7.018
 7982SOL    HW225954   0.205   8.511   7.146
 7983SOL     OW25955   7.801   2.803   4.396
 7983SOL    HW125956   7.864   2.875   4.389
 7983SOL    HW225957   7.717   2.842   4.374
 7984SOL     OW25958   4.219   0.885   0.297
 7984SOL    HW125959   4.176   0.835   0.227
 7984SOL    HW225960   4.268   0.953   0.250
 7985SOL     OW25961   3.694   1.374   3.174
 7985SOL    HW125962   3.619   1.324   3.206
 7985SOL    HW225963   3.656   1.451   3.132
 7986SOL     OW25964   3.434   6.239   0.738
 7986SOL    HW125965   3.512   6.220   0.791
 7986SOL    HW225966   3.395   6.316   0.779
 7987SOL     OW25967   5.190   7.963   3.059
 7987SOL    HW125968   5.166   7.918   3.140
 7987SOL    HW225969   5.266   8.016   3.082
 7988SOL     OW25970   8.752   0.824   4.449
 7988SOL    HW125971   8.775   0.874   4.371
 7988SOL    HW225972   8.688   0.878   4.495
 7989SOL     OW25973   0.154   3.490  11.009
 7989SOL    HW125974   0.136   3.565  10.953
 7989SOL    HW225975   0.080   3.487  11.070
 7990SOL     OW25976   2.376   2.338   4.890
 7990SOL    HW125977   2.324   2.268   4.850
 7990SOL    HW225978   2.442   2.359   4.824
 7991SOL     OW25979   1.464  10.667   7.661
 7991SOL    HW125980   1.551  10.705   7.647
 7991SOL    HW225981   1.444  10.685   7.753
 7992SOL     OW25982   6.536  10.065   4.189
 7992SOL    HW125983   6.556  10.158   4.185
 7992SOL    HW225984   6.617  10.025   4.221
 7993SOL     OW25985  10.169  10.720   0.721
 7993SOL    HW125986  10.238  10.772   0.761
 7993SOL    HW225987  10.088  10.755   0.758
 7994SOL     OW25988   8.921   6.566   0.915
 7994SOL    HW125989   8.980   6.629   0.955
 7994SOL    HW225990   8.967   6.482   0.923
 7995SOL     OW25991   6.637   7.995   2.484
 7995SOL    HW125992   6.643   8.037   2.398
 7995SOL    HW225993   6.614   8.065   2.544
 7996SOL     OW25994   8.073  10.203  10.703
 7996SOL    HW125995   8.046  10.238  10.618
 7996SOL    HW225996   8.004  10.141  10.726
 7997SOL     OW25997   1.946   8.754   1.609
 7997SOL    HW125998   1.938   8.847   1.589
 7997SOL    HW225999   1.922   8.710   1.527
 7998SOL     OW26000   7.099   0.724   1.420
 7998SOL    HW126001   7.094   0.715   1.515
 7998SOL    HW226002   7.028   0.783   1.397
 7999SOL     OW26003   7.055   2.870   4.010
 7999SOL    HW126004   7.084   2.931   4.077
 7999SOL    HW226005   6.961   2.884   4.003
 8000SOL     OW26006  11.020   1.347   6.307
 8000SOL    HW126007  11.042   1.412   6.373
 8000SOL    HW226008  11.020   1.263   6.354
 8001SOL     OW26009   7.000   5.306  10.657
 8001SOL    HW126010   6.975   5.293  10.748
 8001SOL    HW226011   6.919   5.295  10.608
 8002SOL     OW26012   2.390   6.250   7.237
 8002SOL    HW126013   2.301   6.282   7.222
 8002SOL    HW226014   2.407   6.192   7.162
 8003SOL     OW26015   8.419  10.970   2.178
 8003SOL    HW126016   8.458  10.915   2.110
 8003SOL    HW226017   8.391  11.049   2.131
 8004SOL     OW26018   0.659   8.319   6.825
 8004SOL    HW126019   0.578   8.294   6.781
 8004SOL    HW226020   0.727   8.307   6.759
 8005SOL     OW26021   0.050   9.542   2.983
 8005SOL    HW126022   0.079   9.632   2.973
 8005SOL    HW226023   0.094   9.511   3.062
 8006SOL     OW26024   4.366   8.457   3.811
 8006SOL    HW126025   4.349   8.447   3.717
 8006SOL    HW226026   4.405   8.544   3.819
 8007SOL     OW26027   5.642   6.724   5.038
 8007SOL    HW126028   5.717   6.781   5.056
 8007SOL    HW226029   5.652   6.651   5.099
 8008SOL     OW26030   7.139   0.738   3.359
 8008SOL    HW126031   7.139   0.642   3.365
 8008SOL    HW226032   7.144   0.756   3.265
 8009SOL     OW26033   9.472   8.975   0.083
 8009SOL    HW126034   9.389   9.013   0.054
 8009SOL    HW226035   9.517   9.046   0.129
 8010SOL     OW26036   7.610   4.187   7.272
 8010SOL    HW126037   7.561   4.192   7.354
 8010SOL    HW226038   7.555   4.232   7.208
 8011SOL     OW26039   4.315   9.566   2.006
 8011SOL    HW126040   4.227   9.603   2.008
 8011SOL    HW226041   4.352   9.584   2.092
 8012SOL     OW26042   1.116  10.829   6.155
 8012SOL    HW126043   1.123  10.912   6.107
 8012SOL    HW226044   1.107  10.763   6.086
 8013SOL     OW26045   4.817   6.013   1.511
 8013SOL    HW126046   4.740   6.064   1.486
 8013SOL    HW226047   4.859   5.991   1.427
 8014SOL     OW26048   0.216   7.371  10.801
 8014SOL    HW126049   0.138   7.322  10.828
 8014SOL    HW226050   0.221   7.356  10.706
 8015SOL     OW26051  10.511   8.095  10.653
 8015SOL    HW126052  10.445   8.155  10.619
 8015SOL    HW226053  10.461   8.029  10.701
 8016SOL     OW26054   8.644   1.783   3.510
 8016SOL    HW126055   8.646   1.808   3.602
 8016SOL    HW226056   8.610   1.693   3.510
 8017SOL     OW26057   7.490  10.763   0.004
 8017SOL    HW126058   7.433  10.784   0.078
 8017SOL    HW226059   7.541  10.688   0.034
 8018SOL     OW26060   8.147  11.093   6.823
 8018SOL    HW126061   8.051  11.093   6.821
 8018SOL    HW226062   8.173  11.112   6.732
 8019SOL     OW26063   5.360   2.519  10.697
 8019SOL    HW126064   5.375   2.466  10.619
 8019SOL    HW226065   5.444   2.562  10.713
 8020SOL     OW26066   3.503  10.248   9.885
 8020SOL    HW126067   3.409  10.260   9.873
 8020SOL    HW226068   3.510  10.186   9.957
 8021SOL     OW26069   5.461   2.419   5.411
 8021SOL    HW126070   5.422   2.393   5.494
 8021SOL    HW226071   5.455   2.340   5.356
 8022SOL     OW26072   3.780   2.386   2.884
 8022SOL    HW126073   3.800   2.479   2.884
 8022SOL    HW226074   3.685   2.382   2.892
 8023SOL     OW26075   5.659   0.112   6.780
 8023SOL    HW126076   5.746   0.103   6.820
 8023SOL    HW226077   5.666   0.065   6.696
 8024SOL     OW26078   0.317   9.713   8.777
 8024SOL    HW126079   0.407   9.740   8.758
 8024SOL    HW226080   0.323   9.666   8.860
 8025SOL     OW26081   2.188   2.916   5.123
 8025SOL    HW126082   2.140   2.859   5.063
 8025SOL    HW226083   2.194   3.000   5.077
 8026SOL     OW26084   5.870   0.584   4.557
 8026SOL    HW126085   5.904   0.609   4.471
 8026SOL    HW226086   5.918   0.504   4.580
 8027SOL     OW26087   4.324   4.934   2.352
 8027SOL    HW126088   4.404   4.905   2.307
 8027SOL    HW226089   4.354   4.996   2.418
 8028SOL     OW26090   3.603   2.531  10.148
 8028SOL    HW126091   3.608   2.438  10.125
 8028SOL    HW226092   3.524   2.562  10.104
 8029SOL     OW26093   1.400   8.615   2.889
 8029SOL    HW126094   1.474   8.600   2.947
 8029SOL    HW226095   1.439   8.653   2.810
 8030SOL     OW26096   3.979   5.623   0.380
 8030SOL    HW126097   3.990   5.535   0.417
 8030SOL    HW226098   3.969   5.680   0.455
 8031SOL     OW26099   8.648   6.280   9.745
 8031SOL    HW126100   8.717   6.254   9.684
 8031SOL    HW226101   8.669   6.234   9.826
 8032SOL     OW26102   2.591   4.437   1.223
 8032SOL    HW126103   2.529   4.398   1.161
 8032SOL    HW226104   2.542   4.442   1.305
 8033SOL     OW26105   2.278   7.723   6.340
 8033SOL    HW126106   2.191   7.761   6.330
 8033SOL    HW226107   2.338   7.794   6.316
 8034SOL     OW26108   4.100   7.951   8.194
 8034SOL    HW126109   4.005   7.951   8.188
 8034SOL    HW226110   4.118   7.942   8.287
 8035SOL     OW26111   5.265   6.603   8.038
 8035SOL    HW126112   5.191   6.624   8.094
 8035SOL    HW226113   5.328   6.560   8.096
 8036SOL     OW26114   4.323   7.818   8.697
 8036SOL    HW126115   4.319   7.907   8.730
 8036SOL    HW226116   4.343   7.827   8.603
 8037SOL     OW26117   8.906   2.889   4.001
 8037SOL    HW126118   8.974   2.919   3.941
 8037SOL    HW226119   8.826   2.931   3.970
 8038SOL     OW26120   5.853   0.006  11.097
 8038SOL    HW126121   5.926   0.022  11.037
 8038SOL    HW226122   5.890   0.020  11.184
 8039SOL     OW26123  10.934   6.987   0.358
 8039SOL    HW126124  10.944   6.895   0.331
 8039SOL    HW226125  11.024   7.019   0.368
 8040SOL     OW26126   3.305   0.855   3.955
 8040SOL    HW126127   3.384   0.820   3.913
 8040SOL    HW226128   3.238   0.853   3.886
 8041SOL     OW26129   0.285   0.642   2.013
 8041SOL    HW126130   0.346   0.710   1.984
 8041SOL    HW226131   0.301   0.634   2.107
 8042SOL     OW26132   5.538   0.026   8.207
 8042SOL    HW126133   5.506   0.115   8.193
 8042SOL    HW226134   5.615   0.019   8.150
 8043SOL     OW26135   7.914   7.058   2.910
 8043SOL    HW126136   7.933   6.994   2.978
 8043SOL    HW226137   7.898   7.005   2.831
 8044SOL     OW26138   3.529   2.610   2.184
 8044SOL    HW126139   3.603   2.618   2.244
 8044SOL    HW226140   3.551   2.534   2.129
 8045SOL     OW26141   7.351   9.720   4.583
 8045SOL    HW126142   7.409   9.717   4.659
 8045SOL    HW226143   7.374   9.802   4.539
 8046SOL     OW26144   0.305   2.335   3.836
 8046SOL    HW126145   0.317   2.418   3.790
 8046SOL    HW226146   0.380   2.328   3.894
 8047SOL     OW26147   4.798   3.489   5.065
 8047SOL    HW126148   4.846   3.552   5.012
 8047SOL    HW226149   4.706   3.515   5.056
 8048SOL     OW26150   2.900   3.206   6.985
 8048SOL    HW126151   2.821   3.258   6.999
 8048SOL    HW226152   2.882   3.122   7.028
 8049SOL     OW26153   2.798  10.682   6.406
 8049SOL    HW126154   2.786  10.619   6.335
 8049SOL    HW226155   2.753  10.642   6.480
 8050SOL     OW26156   7.148   1.414   6.431
 8050SOL    HW126157   7.095   1.468   6.372
 8050SOL    HW226158   7.084   1.372   6.489
 8051SOL     OW26159   1.680   8.307   4.729
 8051SOL    HW126160   1.768   8.331   4.701
 8051SOL    HW226161   1.694   8.254   4.807
 8052SOL     OW26162   5.904  10.123   0.446
 8052SOL    HW126163   5.986  10.077   0.428
 8052SOL    HW226164   5.849  10.105   0.369
 8053SOL     OW26165   3.899  11.097   1.132
 8053SOL    HW126166   3.984  11.070   1.097
 8053SOL    HW226167   3.874  11.027   1.192
 8054SOL     OW26168  10.561   2.499   4.165
 8054SOL    HW126169  10.496   2.567   4.149
 8054SOL    HW226170  10.644   2.546   4.177
 8055SOL     OW26171   6.527   2.519   5.864
 8055SOL    HW126172   6.551   2.517   5.956
 8055SOL    HW226173   6.452   2.577   5.860
 8056SOL     OW26174   5.707  10.691   5.801
 8056SOL    HW126175   5.639  10.633   5.767
 8056SOL    HW226176   5.787  10.639   5.795
 8057SOL     OW26177   6.315   1.274   6.200
 8057SOL    HW126178   6.294   1.366   6.187
 8057SOL    HW226179   6.284   1.254   6.288
 8058SOL     OW26180   8.962   4.163   3.175
 8058SOL    HW126181   9.040   4.118   3.141
 8058SOL    HW226182   8.908   4.093   3.213
 8059SOL     OW26183  10.201   5.426   1.309
 8059SOL    HW126184  10.294   5.405   1.299
 8059SOL    HW226185  10.195   5.468   1.395
 8060SOL     OW26186   3.967   3.296   7.292
 8060SOL    HW126187   3.960   3.298   7.196
 8060SOL    HW226188   4.038   3.233   7.309
 8061SOL     OW26189   6.107   0.553   0.970
 8061SOL    HW126190   6.199   0.532   0.952
 8061SOL    HW226191   6.075   0.590   0.887
 8062SOL     OW26192  10.328   9.979   9.369
 8062SOL    HW126193  10.256  10.041   9.356
 8062SOL    HW226194  10.374  10.011   9.446
 8063SOL     OW26195  10.324   5.400  10.315
 8063SOL    HW126196  10.351   5.312  10.341
 8063SOL    HW226197  10.375   5.458  10.370
 8064SOL     OW26198   4.789   3.370   3.881
 8064SOL    HW126199   4.712   3.427   3.878
 8064SOL    HW226200   4.863   3.430   3.883
 8065SOL     OW26201   0.036  10.494   3.020
 8065SOL    HW126202  -0.026  10.449   3.077
 8065SOL    HW226203  -0.000  10.484   2.932
 8066SOL     OW26204   1.937   7.937   0.189
 8066SOL    HW126205   1.874   7.867   0.208
 8066SOL    HW226206   1.902   8.013   0.235
 8067SOL     OW26207   6.129   4.475   2.261
 8067SOL    HW126208   6.166   4.532   2.327
 8067SOL    HW226209   6.037   4.465   2.286
 8068SOL     OW26210   1.677   4.420   9.153
 8068SOL    HW126211   1.587   4.425   9.186
 8068SOL    HW226212   1.699   4.510   9.130
 8069SOL     OW26213   3.957  10.182   5.619
 8069SOL    HW126214   3.988  10.170   5.529
 8069SOL    HW226215   3.864  10.204   5.609
 8070SOL     OW26216   4.565  10.966   2.521
 8070SOL    HW126217   4.598  10.881   2.492
 8070SOL    HW226218   4.622  10.990   2.594
 8071SOL     OW26219   4.266   3.981   8.197
 8071SOL    HW126220   4.360   3.979   8.179
 8071SOL    HW226221   4.226   3.948   8.116
 8072SOL     OW26222   3.244   1.911   1.539
 8072SOL    HW126223   3.204   1.879   1.620
 8072SOL    HW226224   3.338   1.894   1.550
 8073SOL     OW26225   4.404  10.245   1.983
 8073SOL    HW126226   4.330  10.240   1.922
 8073SOL    HW226227   4.428  10.153   1.999
 8074SOL     OW26228   7.441   3.082   3.655
 8074SOL    HW126229   7.393   3.163   3.643
 8074SOL    HW226230   7.426   3.033   3.574
 8075SOL     OW26231   6.182   0.115   4.726
 8075SOL    HW126232   6.108   0.056   4.741
 8075SOL    HW226233   6.227   0.119   4.810
 8076SOL     OW26234   2.170   1.942   0.094
 8076SOL    HW126235   2.240   1.973   0.152
 8076SOL    HW226236   2.205   1.862   0.055
 8077SOL     OW26237   9.129   1.069   4.197
 8077SOL    HW126238   9.220   1.084   4.222
 8077SOL    HW226239   9.134   1.043   4.105
 8078SOL     OW26240  10.205   1.600   2.244
 8078SOL    HW126241  10.296   1.602   2.214
 8078SOL    HW226242  10.193   1.682   2.292
 8079SOL     OW26243   8.807   9.749   1.323
 8079SOL    HW126244   8.741   9.776   1.387
 8079SOL    HW226245   8.764   9.759   1.238
 8080SOL     OW26246   2.258   3.741   0.104
 8080SOL    HW126247   2.258   3.832   0.132
 8080SOL    HW226248   2.240   3.744   0.010
 8081SOL     OW26249   0.554   0.132   3.052
 8081SOL    HW126250   0.512   0.068   3.109
 8081SOL    HW226251   0.605   0.187   3.111
 8082SOL     OW26252   4.419   6.656   5.333
 8082SOL    HW126253   4.419   6.582   5.272
 8082SOL    HW226254   4.392   6.730   5.279
 8083SOL     OW26255   5.977   3.324   5.878
 8083SOL    HW126256   5.968   3.342   5.971
 8083SOL    HW226257   6.063   3.282   5.870
 8084SOL     OW26258   1.732  10.875   4.098
 8084SOL    HW126259   1.805  10.864   4.158
 8084SOL    HW226260   1.769  10.924   4.024
 8085SOL     OW26261   6.470   0.025   9.594
 8085SOL    HW126262   6.441   0.109   9.559
 8085SOL    HW226263   6.390  -0.016   9.628
 8086SOL     OW26264   1.193   0.393   5.242
 8086SOL    HW126265   1.125   0.326   5.252
 8086SOL    HW226266   1.263   0.365   5.301
 8087SOL     OW26267   4.201   1.566   1.853
 8087SOL    HW126268   4.173   1.655   1.873
 8087SOL    HW226269   4.293   1.575   1.828
 8088SOL     OW26270   0.950   9.337  10.630
 8088SOL    HW126271   1.024   9.379  10.585
 8088SOL    HW226272   0.946   9.249  10.591
 8089SOL     OW26273   2.592  10.199   4.824
 8089SOL    HW126274   2.501  10.169   4.831
 8089SOL    HW226275   2.585  10.289   4.793
 8090SOL     OW26276   8.585   9.470   3.407
 8090SOL    HW126277   8.666   9.521   3.416
 8090SOL    HW226278   8.608   9.383   3.440
 8091SOL     OW26279   6.478   1.338  10.489
 8091SOL    HW126280   6.476   1.246  10.515
 8091SOL    HW226281   6.401   1.376  10.530
 8092SOL     OW26282  11.080   6.464   7.200
 8092SOL    HW126283  11.067   6.459   7.105
 8092SOL    HW226284  11.153   6.525   7.211
 8093SOL     OW26285   7.087   1.172   9.450
 8093SOL    HW126286   7.051   1.181   9.538
 8093SOL    HW226287   7.060   1.084   9.422
 8094SOL     OW26288   7.791   6.943   2.664
 8094SOL    HW126289   7.761   6.907   2.580
 8094SOL    HW226290   7.786   6.869   2.724
 8095SOL     OW26291   6.055   1.926   1.475
 8095SOL    HW126292   6.110   1.884   1.541
 8095SOL    HW226293   6.014   1.999   1.521
 8096SOL     OW26294   6.495   1.812   5.256
 8096SOL    HW126295   6.477   1.857   5.338
 8096SOL    HW226296   6.527   1.725   5.282
 8097SOL     OW26297   3.376   1.786   5.705
 8097SOL    HW126298   3.364   1.704   5.656
 8097SOL    HW226299   3.363   1.761   5.796
 8098SOL     OW26300   1.189   7.400   8.143
 8098SOL    HW126301   1.133   7.326   8.118
 8098SOL    HW226302   1.229   7.428   8.061
 8099SOL     OW26303   1.131   6.905   4.148
 8099SOL    HW126304   1.131   6.954   4.229
 8099SOL    HW226305   1.211   6.933   4.103
 8100SOL     OW26306   6.559   1.453   2.466
 8100SOL    HW126307   6.623   1.388   2.496
 8100SOL    HW226308   6.529   1.420   2.381
 8101SOL     OW26309   4.921  10.769   6.298
 8101SOL    HW126310   4.919  10.734   6.387
 8101SOL    HW226311   4.890  10.697   6.243
 8102SOL     OW26312   3.148   5.884   5.500
 8102SOL    HW126313   3.227   5.854   5.454
 8102SOL    HW226314   3.158   5.979   5.505
 8103SOL     OW26315   0.809   2.706   7.945
 8103SOL    HW126316   0.775   2.720   7.856
 8103SOL    HW226317   0.796   2.789   7.989
 8104SOL     OW26318   4.268   2.427   2.413
 8104SOL    HW126319   4.183   2.465   2.392
 8104SOL    HW226320   4.310   2.490   2.471
 8105SOL     OW26321   6.103   9.982   6.144
 8105SOL    HW126322   6.117  10.041   6.070
 8105SOL    HW226323   6.191   9.957   6.172
 8106SOL     OW26324   0.278   2.170   0.909
 8106SOL    HW126325   0.314   2.237   0.851
 8106SOL    HW226326   0.354   2.118   0.936
 8107SOL     OW26327   5.206   7.503   8.584
 8107SOL    HW126328   5.198   7.585   8.633
 8107SOL    HW226329   5.116   7.471   8.576
 8108SOL     OW26330   6.557   0.899   2.893
 8108SOL    HW126331   6.607   0.890   2.974
 8108SOL    HW226332   6.466   0.907   2.921
 8109SOL     OW26333   2.190   7.551   4.623
 8109SOL    HW126334   2.194   7.591   4.710
 8109SOL    HW226335   2.261   7.487   4.623
 8110SOL     OW26336   6.239   0.523   6.934
 8110SOL    HW126337   6.292   0.593   6.971
 8110SOL    HW226338   6.216   0.554   6.846
 8111SOL     OW26339   1.044   6.997   3.015
 8111SOL    HW126340   1.116   6.934   3.012
 8111SOL    HW226341   1.068   7.057   3.085
 8112SOL     OW26342   2.378   7.171   4.206
 8112SOL    HW126343   2.318   7.221   4.261
 8112SOL    HW226344   2.457   7.161   4.259
 8113SOL     OW26345   8.600   6.065   8.537
 8113SOL    HW126346   8.641   5.983   8.566
 8113SOL    HW226347   8.663   6.133   8.560
 8114SOL     OW26348   1.650   1.528   3.397
 8114SOL    HW126349   1.696   1.555   3.476
 8114SOL    HW226350   1.716   1.535   3.327
 8115SOL     OW26351   5.834   1.021   4.803
 8115SOL    HW126352   5.841   0.926   4.791
 8115SOL    HW226353   5.851   1.057   4.716
 8116SOL     OW26354   3.024  10.592   3.635
 8116SOL    HW126355   3.038  10.528   3.704
 8116SOL    HW226356   2.983  10.542   3.564
 8117SOL     OW26357   1.588   1.468  10.017
 8117SOL    HW126358   1.622   1.523   9.946
 8117SOL    HW226359   1.662   1.458  10.077
 8118SOL     OW26360   2.395   6.897   1.315
 8118SOL    HW126361   2.447   6.933   1.243
 8118SOL    HW226362   2.312   6.872   1.274
 8119SOL     OW26363   6.256   3.571   2.517
 8119SOL    HW126364   6.304   3.497   2.478
 8119SOL    HW226365   6.257   3.553   2.611
 8120SOL     OW26366   0.310   6.519   3.711
 8120SOL    HW126367   0.281   6.428   3.701
 8120SOL    HW226368   0.344   6.524   3.800
 8121SOL     OW26369   7.896   6.283   3.744
 8121SOL    HW126370   7.964   6.308   3.681
 8121SOL    HW226371   7.909   6.189   3.757
 8122SOL     OW26372   4.811  10.214   5.841
 8122SOL    HW126373   4.849  10.126   5.846
 8122SOL    HW226374   4.717  10.199   5.829
 8123SOL     OW26375  10.243   0.466   6.604
 8123SOL    HW126376  10.147   0.468   6.603
 8123SOL    HW226377  10.265   0.411   6.679
 8124SOL     OW26378   1.522   7.000   5.384
 8124SOL    HW126379   1.455   7.033   5.444
 8124SOL    HW226380   1.498   6.908   5.369
 8125SOL     OW26381   3.579  10.715   7.651
 8125SOL    HW126382   3.486  10.731   7.636
 8125SOL    HW226383   3.622  10.791   7.612
 8126SOL     OW26384   1.801   0.142   0.173
 8126SOL    HW126385   1.762   0.135   0.260
 8126SOL    HW226386   1.791   0.054   0.136
 8127SOL     OW26387   4.906   1.225   4.929
 8127SOL    HW126388   4.814   1.237   4.952
 8127SOL    HW226389   4.921   1.131   4.939
 8128SOL     OW26390   2.248   0.235   4.158
 8128SOL    HW126391   2.326   0.290   4.153
 8128SOL    HW226392   2.282   0.145   4.154
 8129SOL     OW26393   1.549   1.266   8.269
 8129SOL    HW126394   1.524   1.345   8.221
 8129SOL    HW226395   1.503   1.273   8.352
 8130SOL     OW26396   2.589  10.495   3.066
 8130SOL    HW126397   2.593  10.591   3.065
 8130SOL    HW226398   2.605  10.470   2.975
 8131SOL     OW26399   1.415   0.945   8.192
 8131SOL    HW126400   1.483   1.006   8.163
 8131SOL    HW226401   1.333   0.987   8.168
 8132SOL     OW26402   4.524   8.326   5.350
 8132SOL    HW126403   4.557   8.310   5.438
 8132SOL    HW226404   4.441   8.278   5.346
 8133SOL     OW26405  10.989   2.097   2.191
 8133SOL    HW126406  10.895   2.100   2.208
 8133SOL    HW226407  11.021   2.183   2.215
 8134SOL     OW26408   8.645   1.753  10.423
 8134SOL    HW126409   8.709   1.692  10.386
 8134SOL    HW226410   8.660   1.835  10.376
 8135SOL     OW26411   2.453   7.388   2.591
 8135SOL    HW126412   2.492   7.301   2.578
 8135SOL    HW226413   2.476   7.436   2.512
 8136SOL     OW26414   1.671   1.444   3.750
 8136SOL    HW126415   1.714   1.518   3.708
 8136SOL    HW226416   1.626   1.481   3.825
 8137SOL     OW26417   7.852   5.856   6.591
 8137SOL    HW126418   7.924   5.898   6.544
 8137SOL    HW226419   7.895   5.807   6.661
 8138SOL     OW26420   4.683   4.848   9.616
 8138SOL    HW126421   4.613   4.865   9.553
 8138SOL    HW226422   4.638   4.837   9.699
 8139SOL     OW26423   2.288   5.102   1.359
 8139SOL    HW126424   2.366   5.149   1.329
 8139SOL    HW226425   2.275   5.132   1.449
 8140SOL     OW26426   0.245   0.030  10.529
 8140SOL    HW126427   0.266   0.060  10.617
 8140SOL    HW226428   0.224   0.109  10.480
 8141SOL     OW26429   9.133   5.844   4.861
 8141SOL    HW126430   9.219   5.853   4.819
 8141SOL    HW226431   9.150   5.788   4.937
 8142SOL     OW26432   0.734   2.052   2.439
 8142SOL    HW126433   0.673   2.044   2.366
 8142SOL    HW226434   0.691   2.112   2.500
 8143SOL     OW26435   1.661  11.047   3.440
 8143SOL    HW126436   1.680  10.988   3.367
 8143SOL    HW226437   1.569  11.032   3.459
 8144SOL     OW26438   2.948   6.642   6.327
 8144SOL    HW126439   2.870   6.598   6.292
 8144SOL    HW226440   3.010   6.641   6.254
 8145SOL     OW26441   5.084  10.777   3.839
 8145SOL    HW126442   5.172  10.743   3.853
 8145SOL    HW226443   5.061  10.819   3.922
 8146SOL     OW26444   9.459  10.116   9.291
 8146SOL    HW126445   9.550  10.097   9.315
 8146SOL    HW226446   9.407  10.063   9.351
 8147SOL     OW26447   6.585   7.810   7.141
 8147SOL    HW126448   6.573   7.767   7.056
 8147SOL    HW226449   6.534   7.756   7.202
 8148SOL     OW26450   6.368   2.592   7.627
 8148SOL    HW126451   6.413   2.513   7.657
 8148SOL    HW226452   6.275   2.569   7.630
 8149SOL     OW26453   2.120   5.691   9.510
 8149SOL    HW126454   2.112   5.783   9.487
 8149SOL    HW226455   2.030   5.660   9.519
 8150SOL     OW26456   0.925   8.498   5.320
 8150SOL    HW126457   0.912   8.450   5.402
 8150SOL    HW226458   0.850   8.556   5.313
 8151SOL     OW26459   2.372   2.602   2.989
 8151SOL    HW126460   2.387   2.683   2.940
 8151SOL    HW226461   2.362   2.629   3.080
 8152SOL     OW26462   5.293   9.758   8.843
 8152SOL    HW126463   5.272   9.695   8.912
 8152SOL    HW226464   5.222   9.821   8.846
 8153SOL     OW26465   1.667  10.590   2.738
 8153SOL    HW126466   1.604  10.539   2.788
 8153SOL    HW226467   1.620  10.670   2.713
 8154SOL     OW26468   5.797   1.262   6.636
 8154SOL    HW126469   5.751   1.345   6.648
 8154SOL    HW226470   5.861   1.259   6.707
 8155SOL     OW26471   0.599   0.279   6.995
 8155SOL    HW126472   0.554   0.344   6.941
 8155SOL    HW226473   0.646   0.224   6.932
 8156SOL     OW26474   3.288   0.039   1.762
 8156SOL    HW126475   3.349   0.077   1.699
 8156SOL    HW226476   3.264   0.111   1.819
 8157SOL     OW26477   3.655   2.910   7.045
 8157SOL    HW126478   3.561   2.895   7.038
 8157SOL    HW226479   3.677   2.887   7.135
 8158SOL     OW26480  11.077   3.636   3.731
 8158SOL    HW126481  11.163   3.633   3.774
 8158SOL    HW226482  11.095   3.606   3.641
 8159SOL     OW26483   0.972   7.681   4.426
 8159SOL    HW126484   1.066   7.690   4.438
 8159SOL    HW226485   0.964   7.614   4.358
 8160SOL     OW26486   8.404   6.875   8.592
 8160SOL    HW126487   8.339   6.818   8.634
 8160SOL    HW226488   8.488   6.842   8.623
 8161SOL     OW26489   5.157   7.069  10.204
 8161SOL    HW126490   5.081   7.011  10.200
 8161SOL    HW226491   5.215   7.028  10.268
 8162SOL     OW26492   3.118   8.952   4.858
 8162SOL    HW126493   3.059   8.954   4.782
 8162SOL    HW226494   3.103   8.866   4.897
 8163SOL     OW26495   0.106  10.780   3.068
 8163SOL    HW126496   0.112  10.693   3.028
 8163SOL    HW226497   0.012  10.798   3.070
 8164SOL     OW26498   3.630   4.872   6.672
 8164SOL    HW126499   3.572   4.801   6.699
 8164SOL    HW226500   3.572   4.942   6.643
 8165SOL     OW26501  10.047  10.821   8.094
 8165SOL    HW126502  10.029  10.913   8.073
 8165SOL    HW226503  10.072  10.822   8.186
 8166SOL     OW26504   4.858   0.856   8.401
 8166SOL    HW126505   4.895   0.908   8.329
 8166SOL    HW226506   4.924   0.788   8.417
 8167SOL     OW26507   9.229   3.756  11.087
 8167SOL    HW126508   9.164   3.819  11.055
 8167SOL    HW226509   9.177   3.688  11.130
 8168SOL     OW26510   5.899   2.792   8.787
 8168SOL    HW126511   5.983   2.832   8.767
 8168SOL    HW226512   5.839   2.865   8.798
 8169SOL     OW26513   4.041   6.595   9.660
 8169SOL    HW126514   3.994   6.675   9.682
 8169SOL    HW226515   3.976   6.525   9.669
 8170SOL     OW26516   3.216   8.117   3.059
 8170SOL    HW126517   3.193   8.049   3.123
 8170SOL    HW226518   3.300   8.152   3.090
 8171SOL     OW26519   9.642   6.604   1.441
 8171SOL    HW126520   9.734   6.625   1.455
 8171SOL    HW226521   9.614   6.561   1.522
 8172SOL     OW26522   5.830   0.170   4.339
 8172SOL    HW126523   5.879   0.191   4.418
 8172SOL    HW226524   5.782   0.090   4.361
 8173SOL     OW26525   8.232   9.645   8.660
 8173SOL    HW126526   8.210   9.736   8.642
 8173SOL    HW226527   8.275   9.615   8.580
 8174SOL     OW26528   4.573   5.997   2.117
 8174SOL    HW126529   4.638   5.948   2.167
 8174SOL    HW226530   4.550   6.071   2.173
 8175SOL     OW26531   3.418  10.959  10.177
 8175SOL    HW126532   3.464  10.877  10.156
 8175SOL    HW226533   3.325  10.936  10.176
 8176SOL     OW26534  10.896   2.569   2.657
 8176SOL    HW126535  10.834   2.510   2.699
 8176SOL    HW226536  10.904   2.643   2.717
 8177SOL     OW26537   2.694   5.384   8.205
 8177SOL    HW126538   2.681   5.416   8.115
 8177SOL    HW226539   2.619   5.418   8.254
 8178SOL     OW26540   1.814   2.607   3.749
 8178SOL    HW126541   1.841   2.553   3.823
 8178SOL    HW226542   1.729   2.643   3.775
 8179SOL     OW26543   1.625   1.169   3.722
 8179SOL    HW126544   1.657   1.254   3.752
 8179SOL    HW226545   1.667   1.156   3.637
 8180SOL     OW26546   9.588   0.480   6.722
 8180SOL    HW126547   9.648   0.407   6.703
 8180SOL    HW226548   9.519   0.441   6.775
 8181SOL     OW26549   6.866   0.479   0.341
 8181SOL    HW126550   6.882   0.473   0.247
 8181SOL    HW226551   6.886   0.391   0.374
 8182SOL     OW26552   8.714   8.030   0.300
 8182SOL    HW126553   8.675   8.058   0.383
 8182SOL    HW226554   8.808   8.043   0.312
 8183SOL     OW26555   2.350   0.058   3.095
 8183SOL    HW126556   2.333   0.038   3.003
 8183SOL    HW226557   2.439   0.094   3.095
 8184SOL     OW26558   6.544  10.159   7.929
 8184SOL    HW126559   6.624  10.129   7.973
 8184SOL    HW226560   6.576  10.207   7.852
 8185SOL     OW26561   8.201   0.850   3.997
 8185SOL    HW126562   8.161   0.918   3.943
 8185SOL    HW226563   8.174   0.768   3.955
 8186SOL     OW26564   7.118   4.817   9.781
 8186SOL    HW126565   7.062   4.837   9.856
 8186SOL    HW226566   7.180   4.752   9.814
 8187SOL     OW26567   8.627   7.664   4.359
 8187SOL    HW126568   8.539   7.679   4.393
 8187SOL    HW226569   8.623   7.576   4.321
 8188SOL     OW26570  10.272   8.987   5.194
 8188SOL    HW126571  10.188   9.022   5.221
 8188SOL    HW226572  10.336   9.052   5.222
 8189SOL     OW26573   3.223   1.132   3.031
 8189SOL    HW126574   3.245   1.045   2.997
 8189SOL    HW226575   3.197   1.182   2.953
 8190SOL     OW26576   2.582   3.246   0.334
 8190SOL    HW126577   2.533   3.237   0.415
 8190SOL    HW226578   2.545   3.323   0.292
 8191SOL     OW26579   7.912   1.812   5.027
 8191SOL    HW126580   7.938   1.902   5.045
 8191SOL    HW226581   7.816   1.813   5.026
 8192SOL     OW26582   1.715   3.852   1.191
 8192SOL    HW126583   1.648   3.888   1.249
 8192SOL    HW226584   1.737   3.923   1.131
 8193SOL     OW26585   0.415   7.010  11.014
 8193SOL    HW126586   0.373   7.096  11.016
 8193SOL    HW226587   0.499   7.023  11.058
 8194SOL     OW26588   3.876   7.921   5.244
 8194SOL    HW126589   3.816   7.992   5.267
 8194SOL    HW226590   3.821   7.842   5.243
 8195SOL     OW26591   1.720  10.804   3.253
 8195SOL    HW126592   1.754  10.742   3.318
 8195SOL    HW226593   1.726  10.757   3.170
 8196SOL     OW26594   3.622   0.923   3.498
 8196SOL    HW126595   3.715   0.932   3.478
 8196SOL    HW226596   3.612   0.964   3.584
 8197SOL     OW26597   8.246   5.726   7.974
 8197SOL    HW126598   8.184   5.706   7.904
 8197SOL    HW226599   8.329   5.689   7.943
 8198SOL     OW26600   5.823   1.095   5.514
 8198SOL    HW126601   5.890   1.075   5.580
 8198SOL    HW226602   5.866   1.157   5.455
 8199SOL     OW26603  10.785   1.764   3.319
 8199SOL    HW126604  10.876   1.741   3.336
 8199SOL    HW226605  10.761   1.823   3.390
 8200SOL     OW26606   9.965   4.536   7.438
 8200SOL    HW126607   9.954   4.446   7.406
 8200SOL    HW226608   9.955   4.529   7.533
 8201SOL     OW26609   0.494   0.871   3.930
 8201SOL    HW126610   0.450   0.945   3.889
 8201SOL    HW226611   0.587   0.891   3.923
 8202SOL     OW26612   0.577  10.360   8.924
 8202SOL    HW126613   0.572  10.265   8.909
 8202SOL    HW226614   0.607  10.369   9.014
 8203SOL     OW26615   5.270   5.653  10.351
 8203SOL    HW126616   5.183   5.623  10.323
 8203SOL    HW226617   5.271   5.747  10.332
 8204SOL     OW26618   5.417   6.846   1.950
 8204SOL    HW126619   5.366   6.774   1.988
 8204SOL    HW226620   5.491   6.857   2.009
 8205SOL     OW26621   6.199   2.308   4.323
 8205SOL    HW126622   6.219   2.334   4.413
 8205SOL    HW226623   6.229   2.381   4.269
 8206SOL     OW26624   2.013   0.191   7.890
 8206SOL    HW126625   1.978   0.247   7.821
 8206SOL    HW226626   2.106   0.180   7.867
 8207SOL     OW26627   3.446   0.991   9.673
 8207SOL    HW126628   3.371   0.986   9.614
 8207SOL    HW226629   3.509   0.927   9.638
 8208SOL     OW26630   6.621   9.315   4.204
 8208SOL    HW126631   6.642   9.222   4.211
 8208SOL    HW226632   6.532   9.322   4.238
 8209SOL     OW26633   6.480   6.380   5.872
 8209SOL    HW126634   6.473   6.407   5.963
 8209SOL    HW226635   6.539   6.304   5.873
 8210SOL     OW26636   0.627   0.150   6.625
 8210SOL    HW126637   0.597   0.239   6.608
 8210SOL    HW226638   0.682   0.128   6.549
 8211SOL     OW26639   1.786   3.955   7.398
 8211SOL    HW126640   1.726   3.928   7.328
 8211SOL    HW226641   1.820   3.872   7.433
 8212SOL     OW26642   6.608   0.613   9.907
 8212SOL    HW126643   6.595   0.678   9.838
 8212SOL    HW226644   6.612   0.664   9.987
 8213SOL     OW26645   0.428   3.721  10.701
 8213SOL    HW126646   0.374   3.800  10.705
 8213SOL    HW226647   0.518   3.753  10.708
 8214SOL     OW26648   5.808   0.798   3.402
 8214SOL    HW126649   5.825   0.708   3.374
 8214SOL    HW226650   5.890   0.827   3.441
 8215SOL     OW26651   0.287   6.323   0.718
 8215SOL    HW126652   0.285   6.415   0.744
 8215SOL    HW226653   0.228   6.279   0.779
 8216SOL     OW26654   1.762   2.103   1.449
 8216SOL    HW126655   1.792   2.013   1.438
 8216SOL    HW226656   1.667   2.095   1.460
 8217SOL     OW26657   5.017   7.324   7.400
 8217SOL    HW126658   5.007   7.228   7.398
 8217SOL    HW226659   5.010   7.347   7.492
 8218SOL     OW26660   3.379   8.398   7.577
 8218SOL    HW126661   3.414   8.476   7.619
 8218SOL    HW226662   3.436   8.327   7.607
 8219SOL     OW26663   2.301   6.474   2.099
 8219SOL    HW126664   2.278   6.381   2.110
 8219SOL    HW226665   2.326   6.503   2.186
 8220SOL     OW26666   4.527  10.335   4.290
 8220SOL    HW126667   4.623  10.339   4.284
 8220SOL    HW226668   4.507  10.363   4.379
 8221SOL     OW26669   1.364   7.636   8.853
 8221SOL    HW126670   1.296   7.572   8.874
 8221SOL    HW226671   1.343   7.712   8.907
 8222SOL     OW26672   6.063  10.906   8.309
 8222SOL    HW126673   6.001  10.965   8.352
 8222SOL    HW226674   6.070  10.831   8.368
 8223SOL     OW26675   0.991   5.726   7.759
 8223SOL    HW126676   1.026   5.812   7.739
 8223SOL    HW226677   0.896   5.738   7.762
 8224SOL     OW26678   2.579   5.941  10.536
 8224SOL    HW126679   2.522   5.977  10.604
 8224SOL    HW226680   2.665   5.981  10.552
 8225SOL     OW26681  10.736   9.278   8.410
 8225SOL    HW126682  10.666   9.250   8.469
 8225SOL    HW226683  10.723   9.226   8.330
 8226SOL     OW26684   3.557   8.903   3.505
 8226SOL    HW126685   3.532   8.847   3.431
 8226SOL    HW226686   3.611   8.846   3.560
 8227SOL     OW26687   8.868   5.421   2.199
 8227SOL    HW126688   8.787   5.371   2.208
 8227SOL    HW226689   8.877   5.435   2.104
 8228SOL     OW26690   3.686   5.533   6.613
 8228SOL    HW126691   3.701   5.625   6.594
 8228SOL    HW226692   3.742   5.514   6.688
 8229SOL     OW26693   9.399   0.190   6.640
 8229SOL    HW126694   9.421   0.241   6.562
 8229SOL    HW226695   9.330   0.240   6.683
 8230SOL     OW26696   5.299   1.958   7.598
 8230SOL    HW126697   5.287   1.871   7.637
 8230SOL    HW226698   5.386   1.986   7.627
 8231SOL     OW26699   7.508   0.247   1.847
 8231SOL    HW126700   7.535   0.300   1.772
 8231SOL    HW226701   7.452   0.179   1.809
 8232SOL     OW26702   9.688   9.770   5.359
 8232SOL    HW126703   9.597   9.796   5.368
 8232SOL    HW226704   9.687   9.674   5.367
 8233SOL     OW26705   3.375   8.476   3.650
 8233SOL    HW126706   3.317   8.526   3.592
 8233SOL    HW226707   3.456   8.465   3.599
 8234SOL     OW26708   1.169   1.253   2.992
 8234SOL    HW126709   1.088   1.291   3.026
 8234SOL    HW226710   1.218   1.227   3.070
 8235SOL     OW26711   6.067   1.470   1.707
 8235SOL    HW126712   6.044   1.521   1.629
 8235SOL    HW226713   6.028   1.517   1.780
 8236SOL     OW26714   0.421   4.765   9.472
 8236SOL    HW126715   0.432   4.686   9.418
 8236SOL    HW226716   0.504   4.811   9.464
 8237SOL     OW26717   6.981   7.220   7.248
 8237SOL    HW126718   6.934   7.139   7.226
 8237SOL    HW226719   7.035   7.196   7.323
 8238SOL     OW26720   1.349   0.903   1.049
 8238SOL    HW126721   1.317   0.932   1.134
 8238SOL    HW226722   1.442   0.886   1.063
 8239SOL     OW26723   4.190   7.239   0.316
 8239SOL    HW126724   4.237   7.179   0.374
 8239SOL    HW226725   4.143   7.181   0.256
 8240SOL     OW26726   2.899   0.223   3.180
 8240SOL    HW126727   2.925   0.212   3.271
 8240SOL    HW226728   2.956   0.163   3.131
 8241SOL     OW26729   3.932   4.680   9.101
 8241SOL    HW126730   3.920   4.650   9.011
 8241SOL    HW226731   3.921   4.775   9.096
 8242SOL     OW26732   6.326   9.386   2.476
 8242SOL    HW126733   6.357   9.299   2.501
 8242SOL    HW226734   6.259   9.407   2.540
 8243SOL     OW26735   2.591   7.251   1.111
 8243SOL    HW126736   2.568   7.332   1.066
 8243SOL    HW226737   2.573   7.268   1.203
 8244SOL     OW26738   5.278   4.481   9.043
 8244SOL    HW126739   5.302   4.389   9.029
 8244SOL    HW226740   5.186   4.478   9.069
 8245SOL     OW26741   2.010   9.235   9.172
 8245SOL    HW126742   1.974   9.161   9.221
 8245SOL    HW226743   2.079   9.196   9.118
 8246SOL     OW26744   3.464  10.544   2.967
 8246SOL    HW126745   3.494  10.580   3.050
 8246SOL    HW226746   3.392  10.485   2.990
 8247SOL     OW26747   5.498   2.424   8.415
 8247SOL    HW126748   5.584   2.436   8.455
 8247SOL    HW226749   5.508   2.346   8.360
 8248SOL     OW26750   6.043   3.324  10.305
 8248SOL    HW126751   5.966   3.272  10.282
 8248SOL    HW226752   6.009   3.411  10.322
 8249SOL     OW26753   2.372  10.977   9.332
 8249SOL    HW126754   2.404  10.950   9.246
 8249SOL    HW226755   2.447  10.966   9.390
 8250SOL     OW26756   1.827   7.072   3.977
 8250SOL    HW126757   1.873   7.011   3.919
 8250SOL    HW226758   1.882   7.076   4.055
 8251SOL     OW26759   8.590  10.862   3.250
 8251SOL    HW126760   8.618  10.777   3.282
 8251SOL    HW226761   8.577  10.849   3.156
 8252SOL     OW26762  10.278   8.315   4.384
 8252SOL    HW126763  10.277   8.362   4.467
 8252SOL    HW226764  10.362   8.338   4.344
 8253SOL     OW26765   0.732   7.119  10.085
 8253SOL    HW126766   0.802   7.135  10.148
 8253SOL    HW226767   0.725   7.200  10.035
 8254SOL     OW26768   0.523   1.351   5.763
 8254SOL    HW126769   0.432   1.352   5.793
 8254SOL    HW226770   0.550   1.259   5.772
 8255SOL     OW26771   0.817   5.929   8.341
 8255SOL    HW126772   0.744   5.872   8.318
 8255SOL    HW226773   0.865   5.941   8.259
 8256SOL     OW26774   8.432   5.781   8.810
 8256SOL    HW126775   8.522   5.813   8.806
 8256SOL    HW226776   8.428   5.732   8.892
 8257SOL     OW26777   6.876  10.249   7.893
 8257SOL    HW126778   6.859  10.216   7.981
 8257SOL    HW226779   6.930  10.181   7.852
 8258SOL     OW26780   8.608   1.652   6.757
 8258SOL    HW126781   8.556   1.658   6.837
 8258SOL    HW226782   8.550   1.685   6.688
 8259SOL     OW26783   5.681   0.842   7.627
 8259SOL    HW126784   5.694   0.759   7.674
 8259SOL    HW226785   5.675   0.816   7.535
 8260SOL     OW26786   4.448   1.318   0.056
 8260SOL    HW126787   4.442   1.408   0.088
 8260SOL    HW226788   4.493   1.325  -0.028
 8261SOL     OW26789   4.245   0.720   3.179
 8261SOL    HW126790   4.247   0.625   3.193
 8261SOL    HW226791   4.337   0.745   3.169
 8262SOL     OW26792   4.871  10.545   3.266
 8262SOL    HW126793   4.825  10.474   3.221
 8262SOL    HW226794   4.804  10.588   3.318
 8263SOL     OW26795   2.024   0.786   4.455
 8263SOL    HW126796   2.040   0.876   4.428
 8263SOL    HW226797   2.027   0.736   4.373
 8264SOL     OW26798   1.058   2.577   3.358
 8264SOL    HW126799   1.071   2.658   3.406
 8264SOL    HW226800   1.136   2.569   3.303
 8265SOL     OW26801   6.795   1.618   6.419
 8265SOL    HW126802   6.856   1.590   6.487
 8265SOL    HW226803   6.796   1.713   6.423
 8266SOL     OW26804   6.235   8.685   9.004
 8266SOL    HW126805   6.237   8.589   9.001
 8266SOL    HW226806   6.307   8.712   8.947
 8267SOL     OW26807   9.185  10.432   3.232
 8267SOL    HW126808   9.276  10.406   3.242
 8267SOL    HW226809   9.160  10.399   3.145
 8268SOL     OW26810  10.971  10.430   6.026
 8268SOL    HW126811  10.907  10.494   6.057
 8268SOL    HW226812  10.938  10.402   5.940
 8269SOL     OW26813   7.131   3.463   1.057
 8269SOL    HW126814   7.087   3.384   1.088
 8269SOL    HW226815   7.068   3.504   0.997
 8270SOL     OW26816   2.877   1.338   6.995
 8270SOL    HW126817   2.901   1.331   6.902
 8270SOL    HW226818   2.933   1.408   7.029
 8271SOL     OW26819   2.550   7.948   2.164
 8271SOL    HW126820   2.568   7.927   2.255
 8271SOL    HW226821   2.604   7.887   2.114
 8272SOL     OW26822   5.350   2.181   7.409
 8272SOL    HW126823   5.371   2.147   7.496
 8272SOL    HW226824   5.308   2.107   7.364
 8273SOL     OW26825   6.765   2.960   4.027
 8273SOL    HW126826   6.735   2.888   4.083
 8273SOL    HW226827   6.800   3.025   4.088
 8274SOL     OW26828   3.117   3.096   9.069
 8274SOL    HW126829   3.037   3.124   9.024
 8274SOL    HW226830   3.168   3.176   9.079
 8275SOL     OW26831   0.438   6.152   4.176
 8275SOL    HW126832   0.503   6.208   4.218
 8275SOL    HW226833   0.489   6.083   4.133
 8276SOL     OW26834   6.920   0.506   2.418
 8276SOL    HW126835   6.994   0.446   2.413
 8276SOL    HW226836   6.895   0.506   2.510
 8277SOL     OW26837   2.343   0.758   3.876
 8277SOL    HW126838   2.424   0.775   3.923
 8277SOL    HW226839   2.285   0.720   3.941
 8278SOL     OW26840  10.656   2.103   2.588
 8278SOL    HW126841  10.643   2.073   2.498
 8278SOL    HW226842  10.630   2.028   2.642
 8279SOL     OW26843   1.682   7.751   4.794
 8279SOL    HW126844   1.691   7.829   4.739
 8279SOL    HW226845   1.682   7.678   4.731
 8280SOL     OW26846   3.316   3.938   7.398
 8280SOL    HW126847   3.250   3.869   7.405
 8280SOL    HW226848   3.300   3.978   7.312
 8281SOL     OW26849   7.491   0.221   4.719
 8281SOL    HW126850   7.565   0.192   4.772
 8281SOL    HW226851   7.460   0.301   4.761
 8282SOL     OW26852   3.349   3.445   8.178
 8282SOL    HW126853   3.426   3.445   8.235
 8282SOL    HW226854   3.374   3.390   8.104
 8283SOL     OW26855   0.329   1.639   9.369
 8283SOL    HW126856   0.347   1.662   9.460
 8283SOL    HW226857   0.314   1.722   9.325
 8284SOL     OW26858   0.006   1.552   9.670
 8284SOL    HW126859  -0.015   1.617   9.603
 8284SOL    HW226860   0.016   1.602   9.750
 8285SOL     OW26861  10.453  10.261  10.748
 8285SOL    HW126862  10.385  10.308  10.701
 8285SOL    HW226863  10.503  10.216  10.679
 8286SOL     OW26864   6.261   9.980   9.052
 8286SOL    HW126865   6.233   9.909   8.994
 8286SOL    HW226866   6.322   9.938   9.113
 8287SOL     OW26867   6.801   7.336   5.892
 8287SOL    HW126868   6.781   7.242   5.900
 8287SOL    HW226869   6.896   7.341   5.903
 8288SOL     OW26870   5.762   1.674   1.223
 8288SOL    HW126871   5.747   1.708   1.311
 8288SOL    HW226872   5.678   1.636   1.197
 8289SOL     OW26873   6.220   1.357   3.800
 8289SOL    HW126874   6.185   1.271   3.825
 8289SOL    HW226875   6.160   1.390   3.733
 8290SOL     OW26876   4.160   9.109   0.156
 8290SOL    HW126877   4.200   9.068   0.233
 8290SOL    HW226878   4.081   9.152   0.190
 8291SOL     OW26879   0.917   2.415   6.143
 8291SOL    HW126880   1.008   2.397   6.167
 8291SOL    HW226881   0.912   2.391   6.050
 8292SOL     OW26882   6.077   5.695  10.041
 8292SOL    HW126883   6.172   5.692  10.028
 8292SOL    HW226884   6.062   5.775  10.091
 8293SOL     OW26885   7.924   8.535  10.296
 8293SOL    HW126886   7.983   8.467  10.261
 8293SOL    HW226887   7.871   8.490  10.362
 8294SOL     OW26888   7.773   8.984   1.592
 8294SOL    HW126889   7.831   8.942   1.528
 8294SOL    HW226890   7.806   9.073   1.600
 8295SOL     OW26891   3.914   1.065   2.120
 8295SOL    HW126892   4.004   1.057   2.153
 8295SOL    HW226893   3.923   1.059   2.025
 8296SOL     OW26894   3.800   5.694  10.383
 8296SOL    HW126895   3.765   5.605  10.381
 8296SOL    HW226896   3.745   5.740  10.446
 8297SOL     OW26897   1.548   2.097   6.765
 8297SOL    HW126898   1.501   2.055   6.692
 8297SOL    HW226899   1.556   2.189   6.739
 8298SOL     OW26900   8.122  10.958   0.563
 8298SOL    HW126901   8.091  10.900   0.493
 8298SOL    HW226902   8.088  11.044   0.539
 8299SOL     OW26903   1.498   8.717   6.094
 8299SOL    HW126904   1.428   8.770   6.131
 8299SOL    HW226905   1.472   8.702   6.003
 8300SOL     OW26906   0.227   7.803   8.245
 8300SOL    HW126907   0.282   7.737   8.202
 8300SOL    HW226908   0.210   7.868   8.177
 8301SOL     OW26909   2.731   2.368   6.440
 8301SOL    HW126910   2.650   2.327   6.470
 8301SOL    HW226911   2.798   2.301   6.453
 8302SOL     OW26912   3.735   1.888   7.842
 8302SOL    HW126913   3.728   1.917   7.751
 8302SOL    HW226914   3.792   1.811   7.838
 8303SOL     OW26915   3.013   8.414   4.387
 8303SOL    HW126916   3.090   8.453   4.429
 8303SOL    HW226917   3.040   8.400   4.296
 8304SOL     OW26918   3.718   1.973   2.626
 8304SOL    HW126919   3.688   1.927   2.547
 8304SOL    HW226920   3.780   2.038   2.593
 8305SOL     OW26921   4.295   5.521   8.220
 8305SOL    HW126922   4.376   5.474   8.200
 8305SOL    HW226923   4.243   5.458   8.270
 8306SOL     OW26924   3.959   0.168   3.727
 8306SOL    HW126925   3.938   0.076   3.707
 8306SOL    HW226926   3.881   0.201   3.772
 8307SOL     OW26927   0.647   9.402   8.469
 8307SOL    HW126928   0.719   9.350   8.432
 8307SOL    HW226929   0.690   9.474   8.514
 8308SOL     OW26930   0.446   0.493   9.855
 8308SOL    HW126931   0.386   0.432   9.898
 8308SOL    HW226932   0.433   0.476   9.761
 8309SOL     OW26933   3.643   2.154   5.607
 8309SOL    HW126934   3.610   2.064   5.606
 8309SOL    HW226935   3.664   2.171   5.699
 8310SOL     OW26936   2.291   1.883   3.458
 8310SOL    HW126937   2.376   1.920   3.433
 8310SOL    HW226938   2.310   1.829   3.535
 8311SOL     OW26939   2.898   6.196   3.623
 8311SOL    HW126940   2.950   6.119   3.647
 8311SOL    HW226941   2.816   6.160   3.589
 8312SOL     OW26942   9.696   4.579  10.750
 8312SOL    HW126943   9.768   4.637  10.725
 8312SOL    HW226944   9.739   4.499  10.781
 8313SOL     OW26945   9.183   9.545  10.460
 8313SOL    HW126946   9.169   9.490  10.537
 8313SOL    HW226947   9.144   9.495  10.388
 8314SOL     OW26948   4.213   2.985   9.729
 8314SOL    HW126949   4.144   3.016   9.670
 8314SOL    HW226950   4.250   2.908   9.684
 8315SOL     OW26951   6.299   8.340   5.184
 8315SOL    HW126952   6.244   8.359   5.260
 8315SOL    HW226953   6.237   8.328   5.112
 8316SOL     OW26954   3.670   3.722   3.583
 8316SOL    HW126955   3.624   3.803   3.560
 8316SOL    HW226956   3.759   3.750   3.604
 8317SOL     OW26957  10.270   7.050   5.304
 8317SOL    HW126958  10.281   6.972   5.249
 8317SOL    HW226959  10.359   7.073   5.330
 8318SOL     OW26960   9.580   2.848   6.183
 8318SOL    HW126961   9.561   2.924   6.128
 8318SOL    HW226962   9.508   2.845   6.245
 8319SOL     OW26963   0.195  10.648   0.188
 8319SOL    HW126964   0.121  10.687   0.141
 8319SOL    HW226965   0.272  10.670   0.136
 8320SOL     OW26966   4.361   6.855   5.181
 8320SOL    HW126967   4.445   6.899   5.195
 8320SOL    HW226968   4.298   6.925   5.166
 8321SOL     OW26969   4.511   0.673   5.225
 8321SOL    HW126970   4.506   0.586   5.184
 8321SOL    HW226971   4.433   0.719   5.193
 8322SOL     OW26972  10.269   0.057   6.119
 8322SOL    HW126973  10.321   0.038   6.197
 8322SOL    HW226974  10.311   0.134   6.081
 8323SOL     OW26975   6.743  10.413  10.810
 8323SOL    HW126976   6.721  10.381  10.897
 8323SOL    HW226977   6.734  10.336  10.753
 8324SOL     OW26978   2.740   6.422   8.295
 8324SOL    HW126979   2.725   6.327   8.291
 8324SOL    HW226980   2.767   6.445   8.206
 8325SOL     OW26981   2.162   6.029   8.717
 8325SOL    HW126982   2.068   6.034   8.703
 8325SOL    HW226983   2.173   6.045   8.810
 8326SOL     OW26984   6.627   3.011   0.851
 8326SOL    HW126985   6.681   2.937   0.821
 8326SOL    HW226986   6.554   3.013   0.789
 8327SOL     OW26987   9.438   5.506   1.559
 8327SOL    HW126988   9.381   5.569   1.602
 8327SOL    HW226989   9.383   5.465   1.492
 8328SOL     OW26990   1.561  10.185   0.982
 8328SOL    HW126991   1.546  10.232   1.064
 8328SOL    HW226992   1.594  10.099   1.009
 8329SOL     OW26993   9.722   8.652   6.791
 8329SOL    HW126994   9.734   8.735   6.837
 8329SOL    HW226995   9.656   8.605   6.842
 8330SOL     OW26996   2.955   2.527   6.179
 8330SOL    HW126997   2.934   2.616   6.153
 8330SOL    HW226998   2.966   2.531   6.274
 8331SOL     OW26999   4.944   6.547   3.178
 8331SOL    HW127000   4.951   6.579   3.088
 8331SOL    HW227001   4.904   6.619   3.226
 8332SOL     OW27002   7.581   3.530   8.143
 8332SOL    HW127003   7.495   3.526   8.101
 8332SOL    HW227004   7.613   3.440   8.140
 8333SOL     OW27005   4.550   7.124   9.466
 8333SOL    HW127006   4.464   7.083   9.469
 8333SOL    HW227007   4.576   7.117   9.374
 8334SOL     OW27008   7.600  11.002   6.295
 8334SOL    HW127009   7.540  11.012   6.221
 8334SOL    HW227010   7.619  10.908   6.298
 8335SOL     OW27011   8.834   8.718   8.366
 8335SOL    HW127012   8.899   8.686   8.303
 8335SOL    HW227013   8.784   8.640   8.390
 8336SOL     OW27014   7.516  10.204   8.868
 8336SOL    HW127015   7.537  10.130   8.810
 8336SOL    HW227016   7.551  10.280   8.822
 8337SOL     OW27017   0.851   1.063   9.465
 8337SOL    HW127018   0.780   1.123   9.444
 8337SOL    HW227019   0.810   0.994   9.517
 8338SOL     OW27020   2.016   3.692   7.495
 8338SOL    HW127021   1.956   3.662   7.563
 8338SOL    HW227022   2.099   3.648   7.514
 8339SOL     OW27023   2.069   1.864  10.399
 8339SOL    HW127024   2.001   1.859  10.465
 8339SOL    HW227025   2.137   1.804  10.430
 8340SOL     OW27026   1.358   0.388   4.027
 8340SOL    HW127027   1.361   0.382   3.931
 8340SOL    HW227028   1.332   0.478   4.045
 8341SOL     OW27029   1.739   1.891   0.369
 8341SOL    HW127030   1.743   1.918   0.460
 8341SOL    HW227031   1.824   1.916   0.332
 8342SOL     OW27032   1.171   3.450   5.178
 8342SOL    HW127033   1.169   3.355   5.163
 8342SOL    HW227034   1.210   3.486   5.098
 8343SOL     OW27035  10.475   0.722   4.820
 8343SOL    HW127036  10.535   0.792   4.795
 8343SOL    HW227037  10.441   0.748   4.905
 8344SOL     OW27038   1.506  10.548   6.749
 8344SOL    HW127039   1.422  10.502   6.750
 8344SOL    HW227040   1.484  10.639   6.768
 8345SOL     OW27041   9.670   9.817   8.742
 8345SOL    HW127042   9.591   9.862   8.713
 8345SOL    HW227043   9.716   9.881   8.796
 8346SOL     OW27044  10.474   2.477  10.348
 8346SOL    HW127045  10.418   2.467  10.425
 8346SOL    HW227046  10.553   2.519  10.381
 8347SOL     OW27047   2.528   4.322   8.199
 8347SOL    HW127048   2.516   4.401   8.251
 8347SOL    HW227049   2.621   4.323   8.175
 8348SOL     OW27050   1.662   4.679  10.048
 8348SOL    HW127051   1.688   4.736  10.120
 8348SOL    HW227052   1.736   4.682   9.986
 8349SOL     OW27053   0.377   6.798   8.901
 8349SOL    HW127054   0.459   6.832   8.867
 8349SOL    HW227055   0.399   6.761   8.986
 8350SOL     OW27056   3.156   6.775   9.221
 8350SOL    HW127057   3.214   6.768   9.297
 8350SOL    HW227058   3.098   6.847   9.242
 8351SOL     OW27059   2.577   0.790   2.052
 8351SOL    HW127060   2.533   0.705   2.043
 8351SOL    HW227061   2.519   0.841   2.108
 8352SOL     OW27062   2.650   4.938   5.226
 8352SOL    HW127063   2.636   4.980   5.311
 8352SOL    HW227064   2.693   4.855   5.247
 8353SOL     OW27065   0.565  10.381   2.524
 8353SOL    HW127066   0.647  10.428   2.536
 8353SOL    HW227067   0.590  10.288   2.531
 8354SOL     OW27068   1.069   5.094   6.775
 8354SOL    HW127069   1.120   5.042   6.712
 8354SOL    HW227070   1.079   5.184   6.745
 8355SOL     OW27071   6.535   8.710   8.441
 8355SOL    HW127072   6.628   8.714   8.418
 8355SOL    HW227073   6.490   8.718   8.357
 8356SOL     OW27074   8.882   4.317   3.560
 8356SOL    HW127075   8.947   4.387   3.557
 8356SOL    HW227076   8.933   4.236   3.551
 8357SOL     OW27077   6.118   1.110  11.089
 8357SOL    HW127078   6.159   1.121  11.175
 8357SOL    HW227079   6.053   1.180  11.084
 8358SOL     OW27080   4.906   8.888   8.635
 8358SOL    HW127081   4.819   8.914   8.663
 8358SOL    HW227082   4.928   8.813   8.691
 8359SOL     OW27083   2.915   4.882   8.081
 8359SOL    HW127084   2.846   4.815   8.087
 8359SOL    HW227085   2.884   4.954   8.134
 8360SOL     OW27086   2.065   3.248  10.595
 8360SOL    HW127087   2.013   3.205  10.527
 8360SOL    HW227088   2.018   3.329  10.613
 8361SOL     OW27089  10.890   8.303   4.134
 8361SOL    HW127090  10.979   8.335   4.122
 8361SOL    HW227091  10.850   8.312   4.047
 8362SOL     OW27092   1.317   1.602   9.540
 8362SOL    HW127093   1.390   1.553   9.578
 8362SOL    HW227094   1.239   1.563   9.579
 8363SOL     OW27095   2.002   5.677   6.305
 8363SOL    HW127096   2.034   5.593   6.338
 8363SOL    HW227097   1.908   5.675   6.321
 8364SOL     OW27098   9.459   6.003   5.006
 8364SOL    HW127099   9.553   6.001   5.026
 8364SOL    HW227100   9.451   5.946   4.929
 8365SOL     OW27101   6.083   7.629   7.799
 8365SOL    HW127102   6.088   7.637   7.703
 8365SOL    HW227103   6.069   7.718   7.830
 8366SOL     OW27104   5.356  10.106   7.672
 8366SOL    HW127105   5.316  10.186   7.637
 8366SOL    HW227106   5.340  10.040   7.604
 8367SOL     OW27107   5.119   7.610   4.535
 8367SOL    HW127108   5.105   7.570   4.620
 8367SOL    HW227109   5.041   7.663   4.519
 8368SOL     OW27110   4.051   2.223   0.018
 8368SOL    HW127111   4.144   2.241   0.002
 8368SOL    HW227112   4.030   2.273   0.097
 8369SOL     OW27113   9.642   2.316   7.451
 8369SOL    HW127114   9.556   2.287   7.421
 8369SOL    HW227115   9.630   2.407   7.478
 8370SOL     OW27116   0.737   3.368   0.656
 8370SOL    HW127117   0.704   3.377   0.745
 8370SOL    HW227118   0.796   3.293   0.660
 8371SOL     OW27119   1.507   3.139   8.061
 8371SOL    HW127120   1.498   3.163   8.153
 8371SOL    HW227121   1.567   3.204   8.025
 8372SOL     OW27122   8.647   7.863  10.843
 8372SOL    HW127123   8.643   7.859  10.747
 8372SOL    HW227124   8.606   7.781  10.872
 8373SOL     OW27125   0.034   6.554   0.236
 8373SOL    HW127126   0.046   6.544   0.330
 8373SOL    HW227127   0.114   6.518   0.197
 8374SOL     OW27128   6.074   5.888  10.232
 8374SOL    HW127129   6.105   5.975  10.256
 8374SOL    HW227130   5.985   5.884  10.265
 8375SOL     OW27131   7.087   9.633   5.287
 8375SOL    HW127132   7.077   9.540   5.308
 8375SOL    HW227133   7.106   9.634   5.193
 8376SOL     OW27134   2.453   4.045   6.249
 8376SOL    HW127135   2.405   4.111   6.299
 8376SOL    HW227136   2.496   4.094   6.179
 8377SOL     OW27137   3.676  10.097   5.614
 8377SOL    HW127138   3.641  10.036   5.548
 8377SOL    HW227139   3.620  10.174   5.608
 8378SOL     OW27140   9.603   0.064   1.634
 8378SOL    HW127141   9.585   0.117   1.711
 8378SOL    HW227142   9.616   0.127   1.563
 8379SOL     OW27143  11.021   1.290   7.642
 8379SOL    HW127144  11.065   1.239   7.710
 8379SOL    HW227145  10.961   1.346   7.690
 8380SOL     OW27146  10.210  10.688   8.757
 8380SOL    HW127147  10.280  10.701   8.693
 8380SOL    HW227148  10.236  10.610   8.806
 8381SOL     OW27149  10.500   9.479   8.353
 8381SOL    HW127150  10.409   9.478   8.324
 8381SOL    HW227151  10.550   9.501   8.274
 8382SOL     OW27152   9.376   9.255   3.707
 8382SOL    HW127153   9.311   9.197   3.667
 8382SOL    HW227154   9.418   9.202   3.774
 8383SOL     OW27155   6.013   9.738   9.389
 8383SOL    HW127156   6.093   9.696   9.421
 8383SOL    HW227157   6.000   9.701   9.301
 8384SOL     OW27158   3.511   1.116  10.277
 8384SOL    HW127159   3.441   1.175  10.249
 8384SOL    HW227160   3.469   1.030  10.283
 8385SOL     OW27161   4.280   8.305   0.374
 8385SOL    HW127162   4.318   8.295   0.461
 8385SOL    HW227163   4.209   8.367   0.386
 8386SOL     OW27164   0.788   6.192   8.007
 8386SOL    HW127165   0.835   6.109   8.012
 8386SOL    HW227166   0.790   6.215   7.914
 8387SOL     OW27167   9.129   3.030   0.383
 8387SOL    HW127168   9.146   2.978   0.304
 8387SOL    HW227169   9.079   3.105   0.351
 8388SOL     OW27170   9.289   4.586   0.476
 8388SOL    HW127171   9.338   4.640   0.414
 8388SOL    HW227172   9.198   4.610   0.462
 8389SOL     OW27173  10.419   1.684   0.511
 8389SOL    HW127174  10.473   1.606   0.499
 8389SOL    HW227175  10.478   1.757   0.491
 8390SOL     OW27176   6.358  10.675   7.478
 8390SOL    HW127177   6.448  10.664   7.508
 8390SOL    HW227178   6.336  10.765   7.500
 8391SOL     OW27179   0.408   5.810   6.450
 8391SOL    HW127180   0.419   5.902   6.427
 8391SOL    HW227181   0.489   5.768   6.419
 8392SOL     OW27182   2.165   1.854   8.105
 8392SOL    HW127183   2.084   1.893   8.137
 8392SOL    HW227184   2.224   1.928   8.092
 8393SOL     OW27185   4.129   7.723   8.524
 8393SOL    HW127186   4.072   7.791   8.490
 8393SOL    HW227187   4.176   7.764   8.596
 8394SOL     OW27188   2.289   3.514   0.736
 8394SOL    HW127189   2.362   3.575   0.735
 8394SOL    HW227190   2.219   3.561   0.781
 8395SOL     OW27191   3.141   1.247   9.244
 8395SOL    HW127192   3.207   1.221   9.308
 8395SOL    HW227193   3.189   1.252   9.161
 8396SOL     OW27194   5.078   3.717   8.709
 8396SOL    HW127195   5.005   3.749   8.761
 8396SOL    HW227196   5.141   3.789   8.708
 8397SOL     OW27197   5.282   9.626   4.680
 8397SOL    HW127198   5.286   9.633   4.775
 8397SOL    HW227199   5.374   9.621   4.652
 8398SOL     OW27200   1.525   4.360   6.534
 8398SOL    HW127201   1.602   4.303   6.525
 8398SOL    HW227202   1.454   4.300   6.558
 8399SOL     OW27203   2.381   0.230   2.864
 8399SOL    HW127204   2.352   0.266   2.947
 8399SOL    HW227205   2.473   0.255   2.858
 8400SOL     OW27206   4.061   0.865   6.668
 8400SOL    HW127207   4.106   0.904   6.593
 8400SOL    HW227208   3.976   0.837   6.633
 8401SOL     OW27209   0.910   8.941  10.331
 8401SOL    HW127210   0.838   8.967  10.274
 8401SOL    HW227211   0.989   8.959  10.279
 8402SOL     OW27212   4.412   1.097  10.646
 8402SOL    HW127213   4.363   1.128  10.722
 8402SOL    HW227214   4.373   1.143  10.572
 8403SOL     OW27215   9.978   9.522   9.931
 8403SOL    HW127216  10.060   9.553   9.969
 8403SOL    HW227217   9.923   9.600   9.923
 8404SOL     OW27218   1.047   2.435   7.227
 8404SOL    HW127219   1.080   2.477   7.147
 8404SOL    HW227220   0.954   2.459   7.230
 8405SOL     OW27221   2.242  11.044   6.151
 8405SOL    HW127222   2.318  11.069   6.099
 8405SOL    HW227223   2.169  11.090   6.110
 8406SOL     OW27224   2.747   5.068   8.216
 8406SOL    HW127225   2.730   5.157   8.247
 8406SOL    HW227226   2.670   5.018   8.243
 8407SOL     OW27227   4.225   1.355   3.358
 8407SOL    HW127228   4.300   1.301   3.333
 8407SOL    HW227229   4.186   1.382   3.274
 8408SOL     OW27230  10.369  10.685   9.628
 8408SOL    HW127231  10.419  10.761   9.658
 8408SOL    HW227232  10.429  10.638   9.570
 8409SOL     OW27233   3.402   1.234   9.841
 8409SOL    HW127234   3.444   1.151   9.818
 8409SOL    HW227235   3.338   1.248   9.771
 8410SOL     OW27236   1.860   0.944   2.543
 8410SOL    HW127237   1.918   0.997   2.488
 8410SOL    HW227238   1.797   0.906   2.481
 8411SOL     OW27239   2.395   7.146   7.234
 8411SOL    HW127240   2.401   7.135   7.139
 8411SOL    HW227241   2.310   7.187   7.248
 8412SOL     OW27242   7.042  10.394   7.502
 8412SOL    HW127243   7.118  10.340   7.479
 8412SOL    HW227244   7.029  10.378   7.595
 8413SOL     OW27245   4.506   0.484   7.090
 8413SOL    HW127246   4.521   0.528   7.006
 8413SOL    HW227247   4.438   0.536   7.132
 8414SOL     OW27248   3.440   6.609  10.321
 8414SOL    HW127249   3.485   6.610  10.405
 8414SOL    HW227250   3.349   6.629  10.341
 8415SOL     OW27251   6.573   8.396  10.930
 8415SOL    HW127252   6.554   8.382  11.022
 8415SOL    HW227253   6.657   8.352  10.916
 8416SOL     OW27254   4.133   4.873   5.043
 8416SOL    HW127255   4.173   4.939   5.099
 8416SOL    HW227256   4.060   4.918   5.001
 8417SOL     OW27257   2.873   4.891   0.351
 8417SOL    HW127258   2.856   4.967   0.296
 8417SOL    HW227259   2.961   4.863   0.327
 8418SOL     OW27260   4.132   8.119   8.631
 8418SOL    HW127261   4.067   8.175   8.674
 8418SOL    HW227262   4.082   8.043   8.601
 8419SOL     OW27263   6.969   9.179   8.958
 8419SOL    HW127264   6.936   9.263   8.989
 8419SOL    HW227265   6.976   9.190   8.863
 8420SOL     OW27266   5.808   6.511   4.440
 8420SOL    HW127267   5.853   6.550   4.514
 8420SOL    HW227268   5.813   6.417   4.456
 8421SOL     OW27269   9.246   6.639   0.539
 8421SOL    HW127270   9.317   6.638   0.475
 8421SOL    HW227271   9.222   6.547   0.550
 8422SOL     OW27272   4.584   0.043   6.524
 8422SOL    HW127273   4.580  -0.053   6.516
 8422SOL    HW227274   4.676   0.062   6.543
 8423SOL     OW27275   0.282   2.631   9.097
 8423SOL    HW127276   0.282   2.639   9.192
 8423SOL    HW227277   0.333   2.705   9.066
 8424SOL     OW27278   5.024   6.367   5.745
 8424SOL    HW127279   4.936   6.375   5.707
 8424SOL    HW227280   5.079   6.338   5.672
 8425SOL     OW27281   3.685   3.682   2.361
 8425SOL    HW127282   3.727   3.703   2.444
 8425SOL    HW227283   3.593   3.705   2.373
 8426SOL     OW27284   1.109   7.489   2.559
 8426SOL    HW127285   1.022   7.452   2.572
 8426SOL    HW227286   1.120   7.491   2.464
 8427SOL     OW27287   5.660   5.619   7.474
 8427SOL    HW127288   5.722   5.553   7.443
 8427SOL    HW227289   5.715   5.687   7.512
 8428SOL     OW27290   3.815   2.260   1.090
 8428SOL    HW127291   3.846   2.226   1.006
 8428SOL    HW227292   3.855   2.202   1.155
 8429SOL     OW27293   2.321   3.966   8.377
 8429SOL    HW127294   2.328   4.042   8.434
 8429SOL    HW227295   2.325   3.890   8.436
 8430SOL     OW27296   3.370   2.488   1.179
 8430SOL    HW127297   3.302   2.494   1.112
 8430SOL    HW227298   3.323   2.483   1.262
 8431SOL     OW27299   5.269  10.150   0.363
 8431SOL    HW127300   5.361  10.127   0.377
 8431SOL    HW227301   5.232  10.073   0.319
 8432SOL     OW27302   7.360   8.778   0.136
 8432SOL    HW127303   7.395   8.755   0.050
 8432SOL    HW227304   7.375   8.872   0.144
 8433SOL     OW27305   1.428   9.820   7.842
 8433SOL    HW127306   1.489   9.746   7.844
 8433SOL    HW227307   1.382   9.815   7.926
 8434SOL     OW27308   8.114   1.391   6.892
 8434SOL    HW127309   8.126   1.437   6.809
 8434SOL    HW227310   8.108   1.460   6.957
 8435SOL     OW27311   4.021   4.005   6.299
 8435SOL    HW127312   4.081   3.980   6.228
 8435SOL    HW227313   3.989   4.091   6.273
 8436SOL     OW27314   7.975   1.962   3.027
 8436SOL    HW127315   7.991   1.877   2.985
 8436SOL    HW227316   8.058   2.009   3.018
 8437SOL     OW27317   7.905   9.430   7.290
 8437SOL    HW127318   7.942   9.350   7.328
 8437SOL    HW227319   7.982   9.482   7.265
 8438SOL     OW27320   3.747   7.391   0.125
 8438SOL    HW127321   3.737   7.332   0.200
 8438SOL    HW227322   3.842   7.404   0.118
 8439SOL     OW27323   4.344   9.579   4.790
 8439SOL    HW127324   4.287   9.575   4.713
 8439SOL    HW227325   4.431   9.596   4.754
 8440SOL     OW27326   4.226  10.352   7.251
 8440SOL    HW127327   4.279  10.307   7.317
 8440SOL    HW227328   4.164  10.405   7.301
 8441SOL     OW27329   5.022   2.886  10.528
 8441SOL    HW127330   5.037   2.809  10.583
 8441SOL    HW227331   5.005   2.850  10.441
 8442SOL     OW27332   5.385   8.196   2.536
 8442SOL    HW127333   5.316   8.174   2.473
 8442SOL    HW227334   5.338   8.231   2.612
 8443SOL     OW27335   5.201   7.613   8.095
 8443SOL    HW127336   5.260   7.538   8.085
 8443SOL    HW227337   5.235   7.660   8.171
 8444SOL     OW27338   4.556   6.382   9.138
 8444SOL    HW127339   4.582   6.393   9.046
 8444SOL    HW227340   4.629   6.419   9.188
 8445SOL     OW27341   0.175   0.285  10.922
 8445SOL    HW127342   0.238   0.279  10.850
 8445SOL    HW227343   0.228   0.298  11.000
 8446SOL     OW27344   2.636   2.176   8.983
 8446SOL    HW127345   2.639   2.271   8.976
 8446SOL    HW227346   2.722   2.152   9.018
 8447SOL     OW27347   3.685   4.135   8.591
 8447SOL    HW127348   3.643   4.150   8.506
 8447SOL    HW227349   3.617   4.157   8.655
 8448SOL     OW27350   5.825   6.512   0.100
 8448SOL    HW127351   5.760   6.581   0.107
 8448SOL    HW227352   5.843   6.505   0.007
 8449SOL     OW27353   4.243   5.171   4.542
 8449SOL    HW127354   4.254   5.213   4.456
 8449SOL    HW227355   4.322   5.117   4.552
 8450SOL     OW27356   0.635   9.630  10.478
 8450SOL    HW127357   0.642   9.650  10.384
 8450SOL    HW227358   0.681   9.701  10.521
 8451SOL     OW27359   0.758   6.140   8.846
 8451SOL    HW127360   0.738   6.168   8.935
 8451SOL    HW227361   0.721   6.052   8.839
 8452SOL     OW27362   5.041   3.089   5.658
 8452SOL    HW127363   5.019   3.078   5.565
 8452SOL    HW227364   5.010   3.008   5.699
 8453SOL     OW27365   2.620   5.181   9.816
 8453SOL    HW127366   2.678   5.219   9.882
 8453SOL    HW227367   2.579   5.256   9.774
 8454SOL     OW27368   3.983   2.437  10.573
 8454SOL    HW127369   3.969   2.470  10.661
 8454SOL    HW227370   3.917   2.369  10.562
 8455SOL     OW27371   2.242   4.170   8.890
 8455SOL    HW127372   2.251   4.208   8.802
 8455SOL    HW227373   2.332   4.158   8.920
 8456SOL     OW27374   7.014   6.204  10.904
 8456SOL    HW127375   7.075   6.138  10.936
 8456SOL    HW227376   6.993   6.257  10.980
 8457SOL     OW27377   0.308   0.792   9.223
 8457SOL    HW127378   0.395   0.804   9.260
 8457SOL    HW227379   0.288   0.875   9.181
 8458SOL     OW27380   0.941   4.458   3.326
 8458SOL    HW127381   0.971   4.369   3.307
 8458SOL    HW227382   0.941   4.501   3.240
 8459SOL     OW27383   5.881   3.421   9.375
 8459SOL    HW127384   5.879   3.392   9.283
 8459SOL    HW227385   5.967   3.392   9.407
 8460SOL     OW27386   5.804  10.960   3.757
 8460SOL    HW127387   5.730  10.917   3.800
 8460SOL    HW227388   5.771  11.047   3.734
 8461SOL     OW27389  10.936   9.692   1.124
 8461SOL    HW127390  10.887   9.724   1.049
 8461SOL    HW227391  10.901   9.740   1.198
 8462SOL     OW27392   4.605   9.346   1.188
 8462SOL    HW127393   4.641   9.295   1.260
 8462SOL    HW227394   4.682   9.377   1.140
 8463SOL     OW27395   1.659   0.662   8.198
 8463SOL    HW127396   1.670   0.728   8.130
 8463SOL    HW227397   1.593   0.698   8.257
 8464SOL     OW27398   9.665   5.141   5.604
 8464SOL    HW127399   9.607   5.182   5.668
 8464SOL    HW227400   9.627   5.164   5.519
 8465SOL     OW27401   8.188   9.883   8.249
 8465SOL    HW127402   8.154   9.907   8.163
 8465SOL    HW227403   8.112   9.853   8.298
 8466SOL     OW27404   7.955   8.319   5.150
 8466SOL    HW127405   7.962   8.232   5.110
 8466SOL    HW227406   8.032   8.366   5.119
 8467SOL     OW27407   4.481   0.119  10.378
 8467SOL    HW127408   4.552   0.144  10.437
 8467SOL    HW227409   4.418   0.073  10.433
 8468SOL     OW27410   4.940   6.970   3.797
 8468SOL    HW127411   4.850   6.977   3.766
 8468SOL    HW227412   4.989   7.031   3.742
 8469SOL     OW27413  10.827   7.714  11.071
 8469SOL    HW127414  10.785   7.630  11.050
 8469SOL    HW227415  10.834   7.714  11.166
 8470SOL     OW27416   1.838   9.792   8.000
 8470SOL    HW127417   1.893   9.738   8.057
 8470SOL    HW227418   1.863   9.882   8.021
 8471SOL     OW27419   4.468   6.772   9.366
 8471SOL    HW127420   4.446   6.718   9.289
 8471SOL    HW227421   4.388   6.772   9.419
 8472SOL     OW27422   7.735   0.976   2.246
 8472SOL    HW127423   7.782   1.027   2.180
 8472SOL    HW227424   7.798   0.910   2.275
 8473SOL     OW27425   4.307   1.841   2.269
 8473SOL    HW127426   4.230   1.785   2.281
 8473SOL    HW227427   4.344   1.851   2.356
 8474SOL     OW27428   7.520   1.856   2.045
 8474SOL    HW127429   7.492   1.784   2.102
 8474SOL    HW227430   7.595   1.820   1.997
 8475SOL     OW27431  10.024   8.640   3.642
 8475SOL    HW127432  10.062   8.623   3.556
 8475SOL    HW227433  10.053   8.728   3.664
 8476SOL     OW27434   0.861   8.372   8.834
 8476SOL    HW127435   0.913   8.338   8.761
 8476SOL    HW227436   0.815   8.447   8.797
 8477SOL     OW27437   0.085   0.226   8.329
 8477SOL    HW127438  -0.006   0.196   8.331
 8477SOL    HW227439   0.101   0.247   8.237
 8478SOL     OW27440   1.527   4.402   9.847
 8478SOL    HW127441   1.516   4.476   9.907
 8478SOL    HW227442   1.549   4.328   9.904
 8479SOL     OW27443   5.366   3.220   0.247
 8479SOL    HW127444   5.424   3.188   0.316
 8479SOL    HW227445   5.407   3.300   0.216
 8480SOL     OW27446   7.964   9.037   4.281
 8480SOL    HW127447   7.940   8.945   4.293
 8480SOL    HW227448   7.930   9.081   4.358
 8481SOL     OW27449   1.634   8.610   4.520
 8481SOL    HW127450   1.701   8.678   4.518
 8481SOL    HW227451   1.680   8.531   4.549
 8482SOL     OW27452   2.875   0.498   3.455
 8482SOL    HW127453   2.814   0.443   3.504
 8482SOL    HW227454   2.823   0.572   3.425
 8483SOL     OW27455  10.775   5.698   1.762
 8483SOL    HW127456  10.816   5.698   1.848
 8483SOL    HW227457  10.812   5.774   1.718
 8484SOL     OW27458   6.810   5.730   0.862
 8484SOL    HW127459   6.864   5.756   0.787
 8484SOL    HW227460   6.721   5.756   0.837
 8485SOL     OW27461   2.483   5.705   7.135
 8485SOL    HW127462   2.496   5.790   7.177
 8485SOL    HW227463   2.553   5.699   7.070
 8486SOL     OW27464   2.039   2.439  10.078
 8486SOL    HW127465   2.044   2.512  10.140
 8486SOL    HW227466   2.118   2.447  10.025
 8487SOL     OW27467   5.269  10.704   7.940
 8487SOL    HW127468   5.244  10.794   7.918
 8487SOL    HW227469   5.365  10.704   7.936
 8488SOL     OW27470   6.732   3.013  10.649
 8488SOL    HW127471   6.721   2.936  10.593
 8488SOL    HW227472   6.812   3.054  10.616
 8489SOL     OW27473   0.348   2.384   8.235
 8489SOL    HW127474   0.400   2.454   8.197
 8489SOL    HW227475   0.352   2.314   8.170
 8490SOL     OW27476  10.685   4.379   6.569
 8490SOL    HW127477  10.757   4.360   6.509
 8490SOL    HW227478  10.633   4.445   6.524
 8491SOL     OW27479   7.392   4.092   9.264
 8491SOL    HW127480   7.361   4.003   9.281
 8491SOL    HW227481   7.315   4.147   9.275
 8492SOL     OW27482   8.528   1.373   0.818
 8492SOL    HW127483   8.466   1.434   0.778
 8492SOL    HW227484   8.573   1.332   0.744
 8493SOL     OW27485   1.458   2.500   6.795
 8493SOL    HW127486   1.377   2.540   6.763
 8493SOL    HW227487   1.495   2.456   6.718
 8494SOL     OW27488   8.831   2.989   9.199
 8494SOL    HW127489   8.772   3.030   9.262
 8494SOL    HW227490   8.919   3.016   9.226
 8495SOL     OW27491   4.499   9.528   7.780
 8495SOL    HW127492   4.431   9.558   7.720
 8495SOL    HW227493   4.490   9.432   7.781
 8496SOL     OW27494   3.390   4.362   8.597
 8496SOL    HW127495   3.314   4.327   8.550
 8496SOL    HW227496   3.384   4.457   8.586
 8497SOL     OW27497   4.248   6.099   5.643
 8497SOL    HW127498   4.336   6.136   5.642
 8497SOL    HW227499   4.204   6.141   5.716
 8498SOL     OW27500  11.011   8.130   0.101
 8498SOL    HW127501  11.076   8.102   0.166
 8498SOL    HW227502  11.056   8.123   0.017
 8499SOL     OW27503   9.826   1.183   5.900
 8499SOL    HW127504   9.861   1.272   5.902
 8499SOL    HW227505   9.772   1.177   5.979
 8500SOL     OW27506   8.211   2.441   4.702
 8500SOL    HW127507   8.223   2.523   4.655
 8500SOL    HW227508   8.270   2.447   4.777
 8501SOL     OW27509   8.772   0.860   8.191
 8501SOL    HW127510   8.725   0.777   8.198
 8501SOL    HW227511   8.813   0.872   8.276
 8502SOL     OW27512   4.704   7.767   5.584
 8502SOL    HW127513   4.654   7.730   5.511
 8502SOL    HW227514   4.783   7.802   5.543
 8503SOL     OW27515   6.912   1.760   0.824
 8503SOL    HW127516   6.935   1.763   0.916
 8503SOL    HW227517   6.960   1.684   0.790
 8504SOL     OW27518  10.501   7.675   0.949
 8504SOL    HW127519  10.429   7.626   0.989
 8504SOL    HW227520  10.494   7.656   0.855
 8505SOL     OW27521   6.769   1.178   1.214
 8505SOL    HW127522   6.810   1.100   1.176
 8505SOL    HW227523   6.830   1.249   1.194
 8506SOL     OW27524   2.615   1.332   3.196
 8506SOL    HW127525   2.705   1.336   3.229
 8506SOL    HW227526   2.624   1.344   3.101
 8507SOL     OW27527   9.098   3.447   4.647
 8507SOL    HW127528   9.110   3.462   4.740
 8507SOL    HW227529   9.003   3.447   4.635
 8508SOL     OW27530   7.368   2.743   7.680
 8508SOL    HW127531   7.340   2.757   7.770
 8508SOL    HW227532   7.303   2.788   7.627
 8509SOL     OW27533   0.710  10.680   0.657
 8509SOL    HW127534   0.667  10.720   0.581
 8509SOL    HW227535   0.788  10.638   0.620
 8510SOL     OW27536   9.502   9.362   9.499
 8510SOL    HW127537   9.533   9.413   9.424
 8510SOL    HW227538   9.472   9.279   9.461
 8511SOL     OW27539   2.352   2.791   7.360
 8511SOL    HW127540   2.315   2.755   7.279
 8511SOL    HW227541   2.277   2.822   7.409
 8512SOL     OW27542   4.719   1.932   0.570
 8512SOL    HW127543   4.722   1.976   0.485
 8512SOL    HW227544   4.639   1.964   0.611
 8513SOL     OW27545   0.964   6.426  10.310
 8513SOL    HW127546   1.038   6.373  10.279
 8513SOL    HW227547   0.928   6.466  10.230
 8514SOL     OW27548  10.687   1.594   6.992
 8514SOL    HW127549  10.645   1.583   7.077
 8514SOL    HW227550  10.771   1.636   7.011
 8515SOL     OW27551   3.186   1.667  10.194
 8515SOL    HW127552   3.249   1.602  10.163
 8515SOL    HW227553   3.112   1.659  10.133
 8516SOL     OW27554   2.283   5.274   9.784
 8516SOL    HW127555   2.305   5.195   9.833
 8516SOL    HW227556   2.212   5.247   9.726
 8517SOL     OW27557   7.888   7.615  10.313
 8517SOL    HW127558   7.829   7.690  10.314
 8517SOL    HW227559   7.895   7.592  10.220
 8518SOL     OW27560   0.164  10.695   5.864
 8518SOL    HW127561   0.189  10.636   5.935
 8518SOL    HW227562   0.109  10.761   5.906
 8519SOL     OW27563   5.113   0.242   1.177
 8519SOL    HW127564   5.192   0.296   1.181
 8519SOL    HW227565   5.041   0.304   1.186
 8520SOL     OW27566   2.519   2.853   4.889
 8520SOL    HW127567   2.458   2.803   4.835
 8520SOL    HW227568   2.464   2.915   4.936
 8521SOL     OW27569   3.422   3.253   7.016
 8521SOL    HW127570   3.338   3.264   7.060
 8521SOL    HW227571   3.486   3.248   7.087
 8522SOL     OW27572   4.755   4.483   8.602
 8522SOL    HW127573   4.834   4.431   8.617
 8522SOL    HW227574   4.783   4.573   8.615
 8523SOL     OW27575   6.326   2.854  10.768
 8523SOL    HW127576   6.325   2.773  10.819
 8523SOL    HW227577   6.384   2.835  10.694
 8524SOL     OW27578   1.856   9.211   4.894
 8524SOL    HW127579   1.877   9.147   4.826
 8524SOL    HW227580   1.941   9.242   4.925
 8525SOL     OW27581   1.412   0.556   5.170
 8525SOL    HW127582   1.449   0.513   5.093
 8525SOL    HW227583   1.332   0.507   5.188
 8526SOL     OW27584   4.276   7.059   9.478
 8526SOL    HW127585   4.186   7.026   9.483
 8526SOL    HW227586   4.270   7.137   9.423
 8527SOL     OW27587   1.372   9.742   2.633
 8527SOL    HW127588   1.376   9.646   2.634
 8527SOL    HW227589   1.286   9.763   2.670
 8528SOL     OW27590   0.900   8.554  10.601
 8528SOL    HW127591   0.914   8.473  10.650
 8528SOL    HW227592   0.938   8.537  10.515
 8529SOL     OW27593   2.907   8.212   2.720
 8529SOL    HW127594   2.968   8.139   2.713
 8529SOL    HW227595   2.923   8.249   2.806
 8530SOL     OW27596   9.045   0.627   1.504
 8530SOL    HW127597   9.093   0.565   1.448
 8530SOL    HW227598   9.027   0.702   1.447
 8531SOL     OW27599   4.331   0.261   2.911
 8531SOL    HW127600   4.425   0.265   2.893
 8531SOL    HW227601   4.291   0.303   2.835
 8532SOL     OW27602   0.662   2.021   7.495
 8532SOL    HW127603   0.713   2.012   7.575
 8532SOL    HW227604   0.574   1.992   7.519
 8533SOL     OW27605   4.693   8.628   8.342
 8533SOL    HW127606   4.739   8.666   8.267
 8533SOL    HW227607   4.748   8.650   8.417
 8534SOL     OW27608   4.095   1.790   0.683
 8534SOL    HW127609   4.134   1.877   0.676
 8534SOL    HW227610   4.006   1.806   0.713
 8535SOL     OW27611   4.955   0.158   7.064
 8535SOL    HW127612   4.937   0.073   7.105
 8535SOL    HW227613   4.877   0.210   7.081
 8536SOL     OW27614   8.919   3.408   8.174
 8536SOL    HW127615   9.008   3.376   8.156
 8536SOL    HW227616   8.890   3.445   8.090
 8537SOL     OW27617   6.431  10.115   5.345
 8537SOL    HW127618   6.488  10.038   5.353
 8537SOL    HW227619   6.490  10.190   5.352
 8538SOL     OW27620  10.501   0.247   3.536
 8538SOL    HW127621  10.562   0.320   3.529
 8538SOL    HW227622  10.557   0.169   3.540
 8539SOL     OW27623   6.360   1.780   7.595
 8539SOL    HW127624   6.311   1.847   7.641
 8539SOL    HW227625   6.313   1.698   7.613
 8540SOL     OW27626   3.931   4.130  10.454
 8540SOL    HW127627   3.916   4.189  10.380
 8540SOL    HW227628   3.932   4.043  10.414
 8541SOL     OW27629   1.332   9.011  10.314
 8541SOL    HW127630   1.328   8.972  10.401
 8541SOL    HW227631   1.415   8.981  10.278
 8542SOL     OW27632   5.550   3.325   1.075
 8542SOL    HW127633   5.609   3.250   1.067
 8542SOL    HW227634   5.602   3.399   1.045
 8543SOL     OW27635   9.769   0.777   2.921
 8543SOL    HW127636   9.796   0.694   2.961
 8543SOL    HW227637   9.699   0.752   2.860
 8544SOL     OW27638   5.170   9.053   5.737
 8544SOL    HW127639   5.261   9.030   5.717
 8544SOL    HW227640   5.171   9.078   5.829
 8545SOL     OW27641   6.265   0.694  10.472
 8545SOL    HW127642   6.312   0.775  10.493
 8545SOL    HW227643   6.333   0.626  10.473
 8546SOL     OW27644   9.178   9.910   1.455
 8546SOL    HW127645   9.270   9.923   1.477
 8546SOL    HW227646   9.161   9.819   1.480
 8547SOL     OW27647  10.396   3.717   7.665
 8547SOL    HW127648  10.327   3.702   7.730
 8547SOL    HW227649  10.361   3.680   7.584
 8548SOL     OW27650   9.163   7.718   0.188
 8548SOL    HW127651   9.170   7.643   0.248
 8548SOL    HW227652   9.250   7.759   0.191
 8549SOL     OW27653   3.742   6.796   4.014
 8549SOL    HW127654   3.742   6.702   4.034
 8549SOL    HW227655   3.835   6.820   4.013
 8550SOL     OW27656   5.333   3.040   7.455
 8550SOL    HW127657   5.251   3.075   7.489
 8550SOL    HW227658   5.338   2.951   7.490
 8551SOL     OW27659   1.592   2.693   0.389
 8551SOL    HW127660   1.518   2.664   0.443
 8551SOL    HW227661   1.633   2.762   0.439
 8552SOL     OW27662   2.046   7.572   9.335
 8552SOL    HW127663   2.134   7.609   9.340
 8552SOL    HW227664   2.004   7.600   9.416
 8553SOL     OW27665   2.481  10.313   3.962
 8553SOL    HW127666   2.513  10.279   3.878
 8553SOL    HW227667   2.489  10.408   3.954
 8554SOL     OW27668   5.234   3.362   4.400
 8554SOL    HW127669   5.144   3.335   4.380
 8554SOL    HW227670   5.228   3.404   4.485
 8555SOL     OW27671   2.483   7.944   9.296
 8555SOL    HW127672   2.548   8.014   9.294
 8555SOL    HW227673   2.521   7.878   9.354
 8556SOL     OW27674   4.093   7.449   0.474
 8556SOL    HW127675   3.998   7.453   0.462
 8556SOL    HW227676   4.120   7.371   0.425
 8557SOL     OW27677   7.749   3.683   6.987
 8557SOL    HW127678   7.737   3.754   6.924
 8557SOL    HW227679   7.824   3.709   7.040
 8558SOL     OW27680   6.243  10.376   8.241
 8558SOL    HW127681   6.180  10.325   8.292
 8558SOL    HW227682   6.232  10.344   8.151
 8559SOL     OW27683   2.188   8.508   9.699
 8559SOL    HW127684   2.216   8.545   9.782
 8559SOL    HW227685   2.096   8.484   9.713
 8560SOL     OW27686   9.344   7.874   2.111
 8560SOL    HW127687   9.321   7.828   2.192
 8560SOL    HW227688   9.295   7.955   2.115
 8561SOL     OW27689   4.367  10.282   1.431
 8561SOL    HW127690   4.448  10.321   1.464
 8561SOL    HW227691   4.385  10.188   1.428
 8562SOL     OW27692   0.278  10.541   8.038
 8562SOL    HW127693   0.251  10.631   8.018
 8562SOL    HW227694   0.244  10.525   8.126
 8563SOL     OW27695   4.525   2.028   2.981
 8563SOL    HW127696   4.619   2.014   2.965
 8563SOL    HW227697   4.516   2.024   3.076
 8564SOL     OW27698   7.588  10.009   1.936
 8564SOL    HW127699   7.507  10.032   1.890
 8564SOL    HW227700   7.559   9.961   2.013
 8565SOL     OW27701   4.873   9.956   5.238
 8565SOL    HW127702   4.778   9.950   5.227
 8565SOL    HW227703   4.892  10.050   5.237
 8566SOL     OW27704   1.991   3.365   2.469
 8566SOL    HW127705   2.085   3.383   2.464
 8566SOL    HW227706   1.977   3.336   2.559
 8567SOL     OW27707   4.746   7.954   3.702
 8567SOL    HW127708   4.711   8.016   3.638
 8567SOL    HW227709   4.794   7.890   3.649
 8568SOL     OW27710   3.794   3.672   3.960
 8568SOL    HW127711   3.778   3.596   3.903
 8568SOL    HW227712   3.841   3.636   4.035
 8569SOL     OW27713   5.703  10.881   4.710
 8569SOL    HW127714   5.639  10.838   4.653
 8569SOL    HW227715   5.691  10.975   4.693
 8570SOL     OW27716   7.137   0.651   6.763
 8570SOL    HW127717   7.173   0.607   6.840
 8570SOL    HW227718   7.097   0.580   6.712
 8571SOL     OW27719   3.979   7.926   3.466
 8571SOL    HW127720   4.009   8.017   3.463
 8571SOL    HW227721   4.010   7.893   3.550
 8572SOL     OW27722   5.242   2.203   3.721
 8572SOL    HW127723   5.157   2.158   3.724
 8572SOL    HW227724   5.289   2.160   3.649
 8573SOL     OW27725   3.597   9.122   0.997
 8573SOL    HW127726   3.635   9.206   1.020
 8573SOL    HW227727   3.604   9.070   1.077
 8574SOL     OW27728   0.267   4.280   2.123
 8574SOL    HW127729   0.299   4.232   2.046
 8574SOL    HW227730   0.305   4.367   2.114
 8575SOL     OW27731   6.971   0.309   0.107
 8575SOL    HW127732   6.933   0.257   0.036
 8575SOL    HW227733   7.066   0.303   0.093
 8576SOL     OW27734  10.518   8.771   6.122
 8576SOL    HW127735  10.487   8.804   6.206
 8576SOL    HW227736  10.538   8.849   6.071
 8577SOL     OW27737   7.972   1.927   0.555
 8577SOL    HW127738   8.066   1.923   0.574
 8577SOL    HW227739   7.958   2.015   0.521
 8578SOL     OW27740   0.596   1.324   1.902
 8578SOL    HW127741   0.611   1.234   1.931
 8578SOL    HW227742   0.536   1.315   1.828
 8579SOL     OW27743   2.620  10.348   0.684
 8579SOL    HW127744   2.688  10.282   0.668
 8579SOL    HW227745   2.666  10.420   0.727
 8580SOL     OW27746   2.715   9.735   6.107
 8580SOL    HW127747   2.689   9.644   6.094
 8580SOL    HW227748   2.711   9.774   6.019
 8581SOL     OW27749   7.484   0.494   7.391
 8581SOL    HW127750   7.444   0.568   7.345
 8581SOL    HW227751   7.578   0.510   7.385
 8582SOL     OW27752   0.120   1.177   0.227
 8582SOL    HW127753   0.064   1.192   0.303
 8582SOL    HW227754   0.098   1.248   0.167
 8583SOL     OW27755   4.717   3.327   2.239
 8583SOL    HW127756   4.668   3.250   2.268
 8583SOL    HW227757   4.716   3.321   2.143
 8584SOL     OW27758  10.312   0.898   1.245
 8584SOL    HW127759  10.229   0.938   1.270
 8584SOL    HW227760  10.320   0.821   1.302
 8585SOL     OW27761   6.089   8.330   4.998
 8585SOL    HW127762   6.068   8.247   4.954
 8585SOL    HW227763   6.013   8.386   4.982
 8586SOL     OW27764   0.555   8.642   2.328
 8586SOL    HW127765   0.649   8.644   2.308
 8586SOL    HW227766   0.513   8.624   2.243
 8587SOL     OW27767   1.011  11.073   0.873
 8587SOL    HW127768   1.022  11.111   0.786
 8587SOL    HW227769   1.031  10.980   0.861
 8588SOL     OW27770   9.718   5.598  10.001
 8588SOL    HW127771   9.666   5.549   9.937
 8588SOL    HW227772   9.755   5.531  10.058
 8589SOL     OW27773   2.012   6.198   0.917
 8589SOL    HW127774   1.933   6.214   0.865
 8589SOL    HW227775   2.023   6.103   0.914
 8590SOL     OW27776  10.210   5.540   2.936
 8590SOL    HW127777  10.155   5.616   2.954
 8590SOL    HW227778  10.151   5.476   2.896
 8591SOL     OW27779   3.969  10.452   8.745
 8591SOL    HW127780   4.024  10.406   8.681
 8591SOL    HW227781   3.951  10.537   8.704
 8592SOL     OW27782   7.597   0.904   6.696
 8592SOL    HW127783   7.546   0.856   6.761
 8592SOL    HW227784   7.592   0.850   6.617
 8593SOL     OW27785   5.224  10.650   8.439
 8593SOL    HW127786   5.168  10.719   8.475
 8593SOL    HW227787   5.313  10.680   8.457
 8594SOL     OW27788   2.903   9.037  10.111
 8594SOL    HW127789   2.879   8.990  10.191
 8594SOL    HW227790   2.845   9.001  10.044
 8595SOL     OW27791   2.372   4.097   1.280
 8595SOL    HW127792   2.288   4.133   1.309
 8595SOL    HW227793   2.393   4.146   1.200
 8596SOL     OW27794   6.934   0.420   3.121
 8596SOL    HW127795   6.986   0.445   3.197
 8596SOL    HW227796   6.849   0.461   3.136
 8597SOL     OW27797   1.659   5.106  10.022
 8597SOL    HW127798   1.598   5.066  10.084
 8597SOL    HW227799   1.641   5.200  10.026
 8598SOL     OW27800   5.490   3.253   1.638
 8598SOL    HW127801   5.458   3.292   1.557
 8598SOL    HW227802   5.416   3.256   1.698
 8599SOL     OW27803   3.782   8.196   6.729
 8599SOL    HW127804   3.784   8.102   6.747
 8599SOL    HW227805   3.695   8.223   6.756
 8600SOL     OW27806   9.323   0.757  10.524
 8600SOL    HW127807   9.247   0.810  10.545
 8600SOL    HW227808   9.286   0.677  10.485
 8601SOL     OW27809   3.303   2.326   0.463
 8601SOL    HW127810   3.317   2.384   0.388
 8601SOL    HW227811   3.226   2.274   0.439
 8602SOL     OW27812   6.360  10.527   3.977
 8602SOL    HW127813   6.388  10.455   3.920
 8602SOL    HW227814   6.408  10.603   3.945
 8603SOL     OW27815   4.490  10.044   8.472
 8603SOL    HW127816   4.555  10.102   8.512
 8603SOL    HW227817   4.540   9.992   8.408
 8604SOL     OW27818   6.877   0.565   1.605
 8604SOL    HW127819   6.869   0.540   1.513
 8604SOL    HW227820   6.823   0.644   1.613
 8605SOL     OW27821   0.924  10.859   1.128
 8605SOL    HW127822   0.928  10.766   1.148
 8605SOL    HW227823   0.956  10.866   1.038
 8606SOL     OW27824   5.882   2.303   1.324
 8606SOL    HW127825   5.822   2.291   1.397
 8606SOL    HW227826   5.937   2.376   1.349
 8607SOL     OW27827   1.419   6.668   9.717
 8607SOL    HW127828   1.328   6.697   9.711
 8607SOL    HW227829   1.440   6.673   9.810
 8608SOL     OW27830   4.320   9.130   5.014
 8608SOL    HW127831   4.339   9.070   4.942
 8608SOL    HW227832   4.300   9.073   5.088
 8609SOL     OW27833   2.164   2.280   5.117
 8609SOL    HW127834   2.195   2.273   5.026
 8609SOL    HW227835   2.149   2.189   5.143
 8610SOL     OW27836   0.850  10.176   0.401
 8610SOL    HW127837   0.771  10.131   0.370
 8610SOL    HW227838   0.878  10.229   0.326
 8611SOL     OW27839   2.986   7.060   8.570
 8611SOL    HW127840   2.919   7.069   8.638
 8611SOL    HW227841   2.948   7.103   8.493
 8612SOL     OW27842  10.067  11.066   9.139
 8612SOL    HW127843  10.129  11.012   9.089
 8612SOL    HW227844  10.110  11.078   9.224
 8613SOL     OW27845  10.001   0.920  10.561
 8613SOL    HW127846  10.074   0.896  10.618
 8613SOL    HW227847   9.923   0.907  10.614
 8614SOL     OW27848   2.559   3.623  10.868
 8614SOL    HW127849   2.504   3.664  10.934
 8614SOL    HW227850   2.583   3.538  10.906
 8615SOL     OW27851   6.513   9.540   6.036
 8615SOL    HW127852   6.440   9.540   6.098
 8615SOL    HW227853   6.479   9.495   5.958
 8616SOL     OW27854   2.848   5.460   7.894
 8616SOL    HW127855   2.918   5.410   7.936
 8616SOL    HW227856   2.874   5.465   7.802
 8617SOL     OW27857   6.345   9.900   6.214
 8617SOL    HW127858   6.403   9.962   6.258
 8617SOL    HW227859   6.338   9.826   6.274
 8618SOL     OW27860   0.961   2.594   1.866
 8618SOL    HW127861   0.936   2.686   1.868
 8618SOL    HW227862   1.039   2.589   1.921
 8619SOL     OW27863   5.794  10.177   9.230
 8619SOL    HW127864   5.780  10.254   9.175
 8619SOL    HW227865   5.866  10.130   9.187
 8620SOL     OW27866   4.289   1.390  10.692
 8620SOL    HW127867   4.278   1.401  10.597
 8620SOL    HW227868   4.329   1.472  10.721
 8621SOL     OW27869   3.326   6.852   4.770
 8621SOL    HW127870   3.259   6.786   4.750
 8621SOL    HW227871   3.373   6.816   4.845
 8622SOL     OW27872   7.208   7.101   8.432
 8622SOL    HW127873   7.153   7.164   8.386
 8622SOL    HW227874   7.275   7.154   8.475
 8623SOL     OW27875   3.931   2.283   6.758
 8623SOL    HW127876   4.018   2.314   6.785
 8623SOL    HW227877   3.948   2.225   6.683
 8624SOL     OW27878   3.437   4.979   1.581
 8624SOL    HW127879   3.384   5.056   1.559
 8624SOL    HW227880   3.415   4.959   1.672
 8625SOL     OW27881   4.998   3.137  10.321
 8625SOL    HW127882   5.013   3.230  10.306
 8625SOL    HW227883   5.074   3.094  10.282
 8626SOL     OW27884   0.857   7.653   3.071
 8626SOL    HW127885   0.885   7.626   3.158
 8626SOL    HW227886   0.767   7.621   3.063
 8627SOL     OW27887   6.029   2.630   7.154
 8627SOL    HW127888   6.042   2.722   7.131
 8627SOL    HW227889   5.938   2.625   7.184
 8628SOL     OW27890   0.269   2.399  10.048
 8628SOL    HW127891   0.343   2.356  10.090
 8628SOL    HW227892   0.193   2.367  10.096
 8629SOL     OW27893   6.235   6.113   1.325
 8629SOL    HW127894   6.194   6.027   1.316
 8629SOL    HW227895   6.162   6.174   1.329
 8630SOL     OW27896  10.460   5.609   0.750
 8630SOL    HW127897  10.451   5.626   0.656
 8630SOL    HW227898  10.371   5.613   0.784
 8631SOL     OW27899   7.706  10.750   8.040
 8631SOL    HW127900   7.624  10.778   8.080
 8631SOL    HW227901   7.759  10.829   8.037
 8632SOL     OW27902   4.867   7.807   8.898
 8632SOL    HW127903   4.806   7.874   8.928
 8632SOL    HW227904   4.835   7.782   8.811
 8633SOL     OW27905   1.409   0.662   4.468
 8633SOL    HW127906   1.402   0.720   4.543
 8633SOL    HW227907   1.374   0.578   4.499
 8634SOL     OW27908   1.843   4.360   3.598
 8634SOL    HW127909   1.753   4.358   3.631
 8634SOL    HW227910   1.889   4.295   3.651
 8635SOL     OW27911   8.054   9.771   5.462
 8635SOL    HW127912   8.098   9.760   5.546
 8635SOL    HW227913   7.982   9.708   5.464
 8636SOL     OW27914   0.988   8.010   1.031
 8636SOL    HW127915   0.939   7.991   1.110
 8636SOL    HW227916   0.933   8.072   0.983
 8637SOL     OW27917   0.181   9.481   9.325
 8637SOL    HW127918   0.153   9.572   9.326
 8637SOL    HW227919   0.099   9.431   9.318
 8638SOL     OW27920   3.078   8.865   7.849
 8638SOL    HW127921   3.112   8.888   7.762
 8638SOL    HW227922   2.994   8.823   7.831
 8639SOL     OW27923   2.892  11.051   0.987
 8639SOL    HW127924   2.910  10.990   0.915
 8639SOL    HW227925   2.974  11.099   0.998
 8640SOL     OW27926   7.449   3.045   6.998
 8640SOL    HW127927   7.388   3.094   6.943
 8640SOL    HW227928   7.535   3.060   6.958
 8641SOL     OW27929   0.754   5.112   2.527
 8641SOL    HW127930   0.837   5.104   2.574
 8641SOL    HW227931   0.768   5.183   2.465
 8642SOL     OW27932   4.802   9.766   3.717
 8642SOL    HW127933   4.879   9.797   3.669
 8642SOL    HW227934   4.733   9.762   3.651
 8643SOL     OW27935   3.442   8.302   4.883
 8643SOL    HW127936   3.392   8.331   4.959
 8643SOL    HW227937   3.514   8.365   4.876
 8644SOL     OW27938  10.999   2.598   3.679
 8644SOL    HW127939  11.086   2.624   3.710
 8644SOL    HW227940  11.015   2.520   3.624
 8645SOL     OW27941  10.228   4.437   4.407
 8645SOL    HW127942  10.228   4.497   4.481
 8645SOL    HW227943  10.229   4.350   4.446
 8646SOL     OW27944  10.970  10.490   8.136
 8646SOL    HW127945  10.880  10.462   8.119
 8646SOL    HW227946  11.024  10.422   8.096
 8647SOL     OW27947   2.725   9.917   2.009
 8647SOL    HW127948   2.819   9.906   1.993
 8647SOL    HW227949   2.684   9.847   1.958
 8648SOL     OW27950   3.968   4.093   8.762
 8648SOL    HW127951   3.953   4.047   8.679
 8648SOL    HW227952   3.881   4.119   8.791
 8649SOL     OW27953   2.737   6.792   0.742
 8649SOL    HW127954   2.732   6.814   0.649
 8649SOL    HW227955   2.738   6.876   0.787
 8650SOL     OW27956   9.581  10.306   1.069
 8650SOL    HW127957   9.660  10.251   1.071
 8650SOL    HW227958   9.509  10.244   1.055
 8651SOL     OW27959   3.538   1.297   2.620
 8651SOL    HW127960   3.546   1.231   2.551
 8651SOL    HW227961   3.622   1.295   2.665
 8652SOL     OW27962  10.104   7.707   0.847
 8652SOL    HW127963  10.098   7.676   0.937
 8652SOL    HW227964  10.092   7.802   0.852
 8653SOL     OW27965   1.729   0.334   0.977
 8653SOL    HW127966   1.797   0.400   0.964
 8653SOL    HW227967   1.685   0.328   0.892
 8654SOL     OW27968   2.359   3.321   8.876
 8654SOL    HW127969   2.389   3.341   8.964
 8654SOL    HW227970   2.264   3.320   8.882
 8655SOL     OW27971   4.792   1.841   8.263
 8655SOL    HW127972   4.870   1.788   8.281
 8655SOL    HW227973   4.736   1.784   8.209
 8656SOL     OW27974   1.889   1.458   4.988
 8656SOL    HW127975   1.946   1.535   4.984
 8656SOL    HW227976   1.808   1.486   4.945
 8657SOL     OW27977   8.982   3.870  10.824
 8657SOL    HW127978   9.071   3.836  10.814
 8657SOL    HW227979   8.991   3.945  10.882
 8658SOL     OW27980   1.815   9.723   8.496
 8658SOL    HW127981   1.784   9.801   8.542
 8658SOL    HW227982   1.736   9.686   8.456
 8659SOL     OW27983   4.727   1.557   9.814
 8659SOL    HW127984   4.745   1.651   9.814
 8659SOL    HW227985   4.670   1.543   9.889
 8660SOL     OW27986   6.006   1.365  10.020
 8660SOL    HW127987   5.948   1.389   9.947
 8660SOL    HW227988   6.001   1.439  10.080
 8661SOL     OW27989   5.304   8.296   7.619
 8661SOL    HW127990   5.354   8.377   7.611
 8661SOL    HW227991   5.283   8.289   7.712
 8662SOL     OW27992   2.194   9.244   6.897
 8662SOL    HW127993   2.130   9.315   6.894
 8662SOL    HW227994   2.253   9.268   6.968
 8663SOL     OW27995   2.025   1.079   2.370
 8663SOL    HW127996   1.974   1.159   2.381
 8663SOL    HW227997   2.116   1.106   2.383
 8664SOL     OW27998   9.557  10.046   6.244
 8664SOL    HW127999   9.511  10.117   6.199
 8664SOL    HW228000   9.491   9.977   6.255
 8665SOL     OW28001  10.497  10.348   9.551
 8665SOL    HW128002  10.497  10.403   9.472
 8665SOL    HW228003  10.542  10.400   9.617
 8666SOL     OW28004  11.102   9.989  11.039
 8666SOL    HW128005  11.038  10.032  11.096
 8666SOL    HW228006  11.126  10.056  10.975
 8667SOL     OW28007   1.960   4.153   6.895
 8667SOL    HW128008   1.975   4.203   6.814
 8667SOL    HW228009   1.965   4.218   6.965
 8668SOL     OW28010   3.897   9.921   8.763
 8668SOL    HW128011   3.961   9.965   8.818
 8668SOL    HW228012   3.842   9.872   8.824
 8669SOL     OW28013   4.545   1.055   6.649
 8669SOL    HW128014   4.587   1.043   6.734
 8669SOL    HW228015   4.482   0.983   6.643
 8670SOL     OW28016   5.700   2.700   4.721
 8670SOL    HW128017   5.747   2.630   4.675
 8670SOL    HW228018   5.752   2.778   4.705
 8671SOL     OW28019   3.855  10.675  10.822
 8671SOL    HW128020   3.829  10.657  10.731
 8671SOL    HW228021   3.923  10.610  10.840
 8672SOL     OW28022  10.859   1.421   9.739
 8672SOL    HW128023  10.926   1.474   9.782
 8672SOL    HW228024  10.907   1.344   9.708
 8673SOL     OW28025   4.085  10.908   0.283
 8673SOL    HW128026   4.175  10.876   0.291
 8673SOL    HW228027   4.061  10.888   0.192
 8674SOL     OW28028   9.983   9.588   2.345
 8674SOL    HW128029   9.965   9.664   2.290
 8674SOL    HW228030  10.018   9.522   2.284
 8675SOL     OW28031   2.664   4.608   1.910
 8675SOL    HW128032   2.624   4.689   1.941
 8675SOL    HW228033   2.660   4.614   1.814
 8676SOL     OW28034   2.152  10.749   4.413
 8676SOL    HW128035   2.188  10.664   4.387
 8676SOL    HW228036   2.195  10.770   4.496
 8677SOL     OW28037  10.360   0.777   6.768
 8677SOL    HW128038  10.416   0.795   6.843
 8677SOL    HW228039  10.371   0.853   6.711
 8678SOL     OW28040   1.603   9.473   0.231
 8678SOL    HW128041   1.654   9.476   0.312
 8678SOL    HW228042   1.614   9.560   0.192
 8679SOL     OW28043   2.282   7.047   0.943
 8679SOL    HW128044   2.210   7.025   1.002
 8679SOL    HW228045   2.277   6.980   0.874
 8680SOL     OW28046   3.585   0.033  10.957
 8680SOL    HW128047   3.616   0.042  10.867
 8680SOL    HW228048   3.665   0.022  11.009
 8681SOL     OW28049   1.919   6.933   2.200
 8681SOL    HW128050   1.839   6.927   2.148
 8681SOL    HW228051   1.989   6.936   2.135
 8682SOL     OW28052   5.611   9.885   1.150
 8682SOL    HW128053   5.630   9.797   1.118
 8682SOL    HW228054   5.568   9.871   1.234
 8683SOL     OW28055   0.129   4.440   7.673
 8683SOL    HW128056   0.206   4.479   7.713
 8683SOL    HW228057   0.065   4.511   7.669
 8684SOL     OW28058   1.318   2.594   3.234
 8684SOL    HW128059   1.389   2.586   3.169
 8684SOL    HW228060   1.320   2.686   3.261
 8685SOL     OW28061   2.890   6.831   8.186
 8685SOL    HW128062   2.858   6.763   8.127
 8685SOL    HW228063   2.984   6.815   8.192
 8686SOL     OW28064   2.014   9.680  10.582
 8686SOL    HW128065   1.934   9.637  10.612
 8686SOL    HW228066   1.990   9.721  10.499
 8687SOL     OW28067   8.173   6.748   0.794
 8687SOL    HW128068   8.132   6.672   0.836
 8687SOL    HW228069   8.222   6.791   0.864
 8688SOL     OW28070   2.815   9.189   5.872
 8688SOL    HW128071   2.770   9.208   5.954
 8688SOL    HW228072   2.773   9.109   5.839
 8689SOL     OW28073   1.061   0.140   4.373
 8689SOL    HW128074   0.987   0.143   4.434
 8689SOL    HW228075   1.121   0.075   4.410
 8690SOL     OW28076   9.621   9.908   8.248
 8690SOL    HW128077   9.537   9.951   8.237
 8690SOL    HW228078   9.685   9.979   8.245
 8691SOL     OW28079   3.043   9.493   0.057
 8691SOL    HW128080   3.089   9.575   0.039
 8691SOL    HW228081   2.965   9.519   0.106
 8692SOL     OW28082   0.338  10.437   2.370
 8692SOL    HW128083   0.415  10.429   2.425
 8692SOL    HW228084   0.351  10.373   2.300
 8693SOL     OW28085   0.263   1.410   3.732
 8693SOL    HW128086   0.229   1.387   3.645
 8693SOL    HW228087   0.185   1.413   3.788
 8694SOL     OW28088   2.588   0.443   6.987
 8694SOL    HW128089   2.497   0.433   7.014
 8694SOL    HW228090   2.637   0.389   7.049
 8695SOL     OW28091   1.567   3.183   5.421
 8695SOL    HW128092   1.601   3.271   5.406
 8695SOL    HW228093   1.472   3.190   5.409
 8696SOL     OW28094   8.328   2.135  10.985
 8696SOL    HW128095   8.316   2.180  10.901
 8696SOL    HW228096   8.420   2.107  10.984
 8697SOL     OW28097   6.409   3.874   1.082
 8697SOL    HW128098   6.382   3.813   1.013
 8697SOL    HW228099   6.503   3.886   1.067
 8698SOL     OW28100   9.028   7.974  10.103
 8698SOL    HW128101   8.974   8.050  10.082
 8698SOL    HW228102   9.116   7.999  10.075
 8699SOL     OW28103   7.456   2.282   2.571
 8699SOL    HW128104   7.530   2.340   2.557
 8699SOL    HW228105   7.496   2.199   2.598
 8700SOL     OW28106   4.942   7.131   8.440
 8700SOL    HW128107   4.926   7.120   8.346
 8700SOL    HW228108   4.996   7.055   8.463
 8701SOL     OW28109   2.892   4.768   8.685
 8701SOL    HW128110   2.918   4.842   8.740
 8701SOL    HW228111   2.805   4.792   8.652
 8702SOL     OW28112   8.548   2.266   3.353
 8702SOL    HW128113   8.466   2.256   3.304
 8702SOL    HW228114   8.544   2.354   3.390
 8703SOL     OW28115   5.472   5.710   1.043
 8703SOL    HW128116   5.422   5.729   1.122
 8703SOL    HW228117   5.431   5.764   0.975
 8704SOL     OW28118   5.882   1.208   0.578
 8704SOL    HW128119   5.890   1.213   0.482
 8704SOL    HW228120   5.952   1.264   0.611
 8705SOL     OW28121   2.639  10.497   1.490
 8705SOL    HW128122   2.691  10.561   1.441
 8705SOL    HW228123   2.664  10.413   1.452
 8706SOL     OW28124  10.579  10.207   1.928
 8706SOL    HW128125  10.583  10.124   1.879
 8706SOL    HW228126  10.664  10.248   1.911
 8707SOL     OW28127  10.659   4.859   4.031
 8707SOL    HW128128  10.717   4.872   3.956
 8707SOL    HW228129  10.668   4.766   4.052
 8708SOL     OW28130   4.548  10.194   9.983
 8708SOL    HW128131   4.495  10.114   9.989
 8708SOL    HW228132   4.566  10.203   9.889
 8709SOL     OW28133   3.822   4.444  10.018
 8709SOL    HW128134   3.808   4.452   9.923
 8709SOL    HW228135   3.912   4.473  10.032
 8710SOL     OW28136   0.726   4.838   5.512
 8710SOL    HW128137   0.727   4.898   5.438
 8710SOL    HW228138   0.813   4.798   5.511
 8711SOL     OW28139   6.884   8.108   1.550
 8711SOL    HW128140   6.794   8.139   1.553
 8711SOL    HW228141   6.931   8.162   1.614
 8712SOL     OW28142   3.580   2.849   2.044
 8712SOL    HW128143   3.586   2.789   2.119
 8712SOL    HW228144   3.531   2.799   1.978
 8713SOL     OW28145   1.639   1.525   8.969
 8713SOL    HW128146   1.576   1.585   9.008
 8713SOL    HW228147   1.724   1.562   8.992
 8714SOL     OW28148   2.297   5.730   8.812
 8714SOL    HW128149   2.298   5.687   8.898
 8714SOL    HW228150   2.311   5.658   8.750
 8715SOL     OW28151   3.035   2.111   0.113
 8715SOL    HW128152   2.954   2.161   0.107
 8715SOL    HW228153   3.018   2.031   0.063
 8716SOL     OW28154   4.655   1.325   5.002
 8716SOL    HW128155   4.634   1.356   5.090
 8716SOL    HW228156   4.657   1.404   4.948
 8717SOL     OW28157  10.370  10.010   8.920
 8717SOL    HW128158  10.361   9.960   9.001
 8717SOL    HW228159  10.389   9.944   8.853
 8718SOL     OW28160   6.524   3.149   8.922
 8718SOL    HW128161   6.534   3.079   8.857
 8718SOL    HW228162   6.609   3.152   8.967
 8719SOL     OW28163   0.444  10.637   2.981
 8719SOL    HW128164   0.401  10.613   2.898
 8719SOL    HW228165   0.500  10.711   2.958
 8720SOL     OW28166   9.797   7.270   2.669
 8720SOL    HW128167   9.764   7.358   2.651
 8720SOL    HW228168   9.829   7.239   2.584
 8721SOL     OW28169   2.253  10.084   3.919
 8721SOL    HW128170   2.290  10.138   3.988
 8721SOL    HW228171   2.329  10.053   3.869
 8722SOL     OW28172   2.450   0.180   1.756
 8722SOL    HW128173   2.486   0.101   1.796
 8722SOL    HW228174   2.510   0.250   1.783
 8723SOL     OW28175   4.133   9.578   7.030
 8723SOL    HW128176   4.197   9.563   7.100
 8723SOL    HW228177   4.174   9.541   6.952
 8724SOL     OW28178   0.840   8.382   1.978
 8724SOL    HW128179   0.837   8.331   2.059
 8724SOL    HW228180   0.819   8.318   1.909
 8725SOL     OW28181   2.246  10.033   0.286
 8725SOL    HW128182   2.282   9.967   0.345
 8725SOL    HW228183   2.223  10.106   0.342
 8726SOL     OW28184   0.644  10.590   8.354
 8726SOL    HW128185   0.587  10.559   8.284
 8726SOL    HW228186   0.681  10.510   8.392
 8727SOL     OW28187   6.623   1.555  11.006
 8727SOL    HW128188   6.716   1.561  10.986
 8727SOL    HW228189   6.590   1.644  10.997
 8728SOL     OW28190   3.878   7.145   5.290
 8728SOL    HW128191   3.891   7.229   5.334
 8728SOL    HW228192   3.851   7.085   5.359
 8729SOL     OW28193   5.773   1.271   4.891
 8729SOL    HW128194   5.742   1.286   4.980
 8729SOL    HW228195   5.773   1.175   4.881
 8730SOL     OW28196   7.294   2.985   0.273
 8730SOL    HW128197   7.313   2.964   0.181
 8730SOL    HW228198   7.272   2.901   0.313
 8731SOL     OW28199   5.064   6.282   1.323
 8731SOL    HW128200   4.974   6.289   1.354
 8731SOL    HW228201   5.066   6.199   1.274
 8732SOL     OW28202   2.253   3.980   7.590
 8732SOL    HW128203   2.306   3.941   7.520
 8732SOL    HW228204   2.316   4.003   7.658
 8733SOL     OW28205   4.271   4.680   0.050
 8733SOL    HW128206   4.226   4.751   0.006
 8733SOL    HW228207   4.232   4.677   0.137
 8734SOL     OW28208   2.033   4.095   6.044
 8734SOL    HW128209   2.106   4.054   6.091
 8734SOL    HW228210   1.961   4.033   6.053
 8735SOL     OW28211   6.123  10.323   4.221
 8735SOL    HW128212   6.104  10.306   4.313
 8735SOL    HW228213   6.217  10.307   4.212
 8736SOL     OW28214   8.993   7.891   0.089
 8736SOL    HW128215   9.056   7.821   0.105
 8736SOL    HW228216   9.040   7.971   0.110
 8737SOL     OW28217   9.311   0.134   1.630
 8737SOL    HW128218   9.392   0.082   1.636
 8737SOL    HW228219   9.268   0.121   1.714
 8738SOL     OW28220   6.070   0.632   0.099
 8738SOL    HW128221   5.977   0.626   0.123
 8738SOL    HW228222   6.075   0.596   0.011
 8739SOL     OW28223   4.390   2.024   2.096
 8739SOL    HW128224   4.417   2.085   2.164
 8739SOL    HW228225   4.365   1.944   2.143
 8740SOL     OW28226   6.473   1.367   3.236
 8740SOL    HW128227   6.489   1.407   3.321
 8740SOL    HW228228   6.537   1.408   3.178
 8741SOL     OW28229   5.314   4.841   7.950
 8741SOL    HW128230   5.256   4.851   7.874
 8741SOL    HW228231   5.260   4.865   8.025
 8742SOL     OW28232   2.036   4.351   5.974
 8742SOL    HW128233   2.051   4.262   6.007
 8742SOL    HW228234   2.116   4.373   5.927
 8743SOL     OW28235   4.509   4.561   5.342
 8743SOL    HW128236   4.568   4.608   5.401
 8743SOL    HW228237   4.516   4.469   5.369
 8744SOL     OW28238   7.062   3.334   8.930
 8744SOL    HW128239   6.995   3.365   8.990
 8744SOL    HW228240   7.014   3.312   8.850
 8745SOL     OW28241   4.028   1.891   2.630
 8745SOL    HW128242   3.975   1.836   2.688
 8745SOL    HW228243   4.106   1.911   2.681
 8746SOL     OW28244   0.682   6.439  10.109
 8746SOL    HW128245   0.745   6.501  10.072
 8746SOL    HW228246   0.612   6.494  10.143
 8747SOL     OW28247   8.645   6.710   0.289
 8747SOL    HW128248   8.596   6.775   0.339
 8747SOL    HW228249   8.683   6.759   0.216
 8748SOL     OW28250   1.426  11.087   8.191
 8748SOL    HW128251   1.503  11.138   8.164
 8748SOL    HW228252   1.392  11.133   8.267
 8749SOL     OW28253   7.834   8.879  10.633
 8749SOL    HW128254   7.791   8.888  10.548
 8749SOL    HW228255   7.866   8.966  10.653
 8750SOL     OW28256   3.154   2.841   3.534
 8750SOL    HW128257   3.184   2.791   3.610
 8750SOL    HW228258   3.059   2.836   3.538
 8751SOL     OW28259   3.781  10.064  10.543
 8751SOL    HW128260   3.784   9.969  10.532
 8751SOL    HW228261   3.861  10.095  10.500
 8752SOL     OW28262   5.677   1.107   9.861
 8752SOL    HW128263   5.609   1.077   9.800
 8752SOL    HW228264   5.720   1.179   9.815
 8753SOL     OW28265   2.219   3.972   0.841
 8753SOL    HW128266   2.307   4.008   0.828
 8753SOL    HW228267   2.203   3.919   0.762
 8754SOL     OW28268   0.129   4.636   1.655
 8754SOL    HW128269   0.188   4.591   1.594
 8754SOL    HW228270   0.105   4.569   1.719
 8755SOL     OW28271   5.393   2.885   8.215
 8755SOL    HW128272   5.315   2.880   8.270
 8755SOL    HW228273   5.466   2.870   8.275
 8756SOL     OW28274  10.862   9.989   8.669
 8756SOL    HW128275  10.835  10.079   8.650
 8756SOL    HW228276  10.941   9.998   8.722
 8757SOL     OW28277   7.100   9.296   1.639
 8757SOL    HW128278   7.078   9.336   1.723
 8757SOL    HW228279   7.032   9.229   1.625
 8758SOL     OW28280   3.974   9.764   2.629
 8758SOL    HW128281   3.932   9.774   2.714
 8758SOL    HW228282   3.918   9.702   2.582
 8759SOL     OW28283   3.775   3.522  11.024
 8759SOL    HW128284   3.759   3.431  10.998
 8759SOL    HW228285   3.862   3.519  11.065
 8760SOL     OW28286   6.814   3.034   0.436
 8760SOL    HW128287   6.725   3.005   0.416
 8760SOL    HW228288   6.870   2.973   0.387
 8761SOL     OW28289   6.702   7.964  10.966
 8761SOL    HW128290   6.685   7.881  10.921
 8761SOL    HW228291   6.740   8.020  10.898
 8762SOL     OW28292   0.099   4.092   6.441
 8762SOL    HW128293   0.115   4.046   6.523
 8762SOL    HW228294   0.154   4.170   6.446
 8763SOL     OW28295   4.364   5.368   1.377
 8763SOL    HW128296   4.312   5.302   1.330
 8763SOL    HW228297   4.366   5.337   1.467
 8764SOL     OW28298   5.661   1.125  10.638
 8764SOL    HW128299   5.655   1.030  10.627
 8764SOL    HW228300   5.607   1.161  10.567
 8765SOL     OW28301   4.118   4.515   0.582
 8765SOL    HW128302   4.190   4.536   0.641
 8765SOL    HW228303   4.097   4.598   0.539
 8766SOL     OW28304   6.073   8.551   0.531
 8766SOL    HW128305   6.056   8.620   0.467
 8766SOL    HW228306   6.118   8.483   0.481
 8767SOL     OW28307   0.581   5.993  10.259
 8767SOL    HW128308   0.563   5.906  10.223
 8767SOL    HW228309   0.632   5.976  10.338
 8768SOL     OW28310   4.303   4.134   9.774
 8768SOL    HW128311   4.217   4.165   9.800
 8768SOL    HW228312   4.288   4.044   9.743
 8769SOL     OW28313   4.575   2.531   2.434
 8769SOL    HW128314   4.509   2.525   2.365
 8769SOL    HW228315   4.534   2.492   2.511
 8770SOL     OW28316   3.301   2.363   4.388
 8770SOL    HW128317   3.384   2.326   4.419
 8770SOL    HW228318   3.326   2.446   4.348
 8771SOL     OW28319   6.207   7.460   1.616
 8771SOL    HW128320   6.151   7.383   1.631
 8771SOL    HW228321   6.156   7.534   1.649
 8772SOL     OW28322   9.672   8.821   7.520
 8772SOL    HW128323   9.698   8.900   7.567
 8772SOL    HW228324   9.720   8.750   7.563
 8773SOL     OW28325  10.132   6.210   3.512
 8773SOL    HW128326  10.213   6.166   3.485
 8773SOL    HW228327  10.073   6.138   3.535
 8774SOL     OW28328   2.885   2.740   9.113
 8774SOL    HW128329   2.932   2.781   9.040
 8774SOL    HW228330   2.819   2.685   9.070
 8775SOL     OW28331   0.645   4.153   5.852
 8775SOL    HW128332   0.560   4.125   5.817
 8775SOL    HW228333   0.708   4.127   5.784
 8776SOL     OW28334   9.448   5.380   2.795
 8776SOL    HW128335   9.541   5.387   2.773
 8776SOL    HW228336   9.433   5.286   2.804
 8777SOL     OW28337   7.214   1.573   3.479
 8777SOL    HW128338   7.284   1.532   3.428
 8777SOL    HW228339   7.147   1.594   3.414
 8778SOL     OW28340   8.205   0.226   5.482
 8778SOL    HW128341   8.151   0.184   5.549
 8778SOL    HW228342   8.143   0.249   5.412
 8779SOL     OW28343   0.253   4.166  10.067
 8779SOL    HW128344   0.251   4.191  10.159
 8779SOL    HW228345   0.233   4.247  10.020
 8780SOL     OW28346   9.171   6.953   7.291
 8780SOL    HW128347   9.211   6.922   7.209
 8780SOL    HW228348   9.081   6.974   7.267
 8781SOL     OW28349   8.688   1.953   8.459
 8781SOL    HW128350   8.735   1.972   8.378
 8781SOL    HW228351   8.596   1.953   8.434
 8782SOL     OW28352   1.138   1.861   2.825
 8782SOL    HW128353   1.109   1.789   2.769
 8782SOL    HW228354   1.123   1.829   2.914
 8783SOL     OW28355   4.433   3.294   9.474
 8783SOL    HW128356   4.527   3.307   9.488
 8783SOL    HW228357   4.403   3.248   9.552
 8784SOL     OW28358   5.487   7.989   2.902
 8784SOL    HW128359   5.452   7.909   2.940
 8784SOL    HW228360   5.526   8.036   2.975
 8785SOL     OW28361   3.110   5.397  10.629
 8785SOL    HW128362   3.152   5.454  10.693
 8785SOL    HW228363   3.180   5.374  10.568
 8786SOL     OW28364   4.937   0.567   3.254
 8786SOL    HW128365   4.906   0.547   3.165
 8786SOL    HW228366   4.960   0.660   3.251
 8787SOL     OW28367   5.224   0.117   6.162
 8787SOL    HW128368   5.215   0.097   6.255
 8787SOL    HW228369   5.276   0.044   6.127
 8788SOL     OW28370   6.135   7.806   3.636
 8788SOL    HW128371   6.197   7.878   3.624
 8788SOL    HW228372   6.190   7.728   3.643
 8789SOL     OW28373   5.926   1.606   1.519
 8789SOL    HW128374   5.862   1.549   1.476
 8789SOL    HW228375   5.878   1.644   1.592
 8790SOL     OW28376   5.063   0.076   2.544
 8790SOL    HW128377   5.096   0.020   2.473
 8790SOL    HW228378   5.103   0.161   2.527
 8791SOL     OW28379   4.629   4.011   0.959
 8791SOL    HW128380   4.586   4.087   0.998
 8791SOL    HW228381   4.566   3.979   0.894
 8792SOL     OW28382   4.876   1.323   4.656
 8792SOL    HW128383   4.832   1.406   4.642
 8792SOL    HW228384   4.873   1.309   4.750
 8793SOL     OW28385   3.622   4.541   0.105
 8793SOL    HW128386   3.614   4.461   0.053
 8793SOL    HW228387   3.714   4.567   0.095
 8794SOL     OW28388   5.026  10.849   2.986
 8794SOL    HW128389   5.061  10.891   2.907
 8794SOL    HW228390   5.089  10.780   3.006
 8795SOL     OW28391   3.306   8.850  10.477
 8795SOL    HW128392   3.228   8.894  10.443
 8795SOL    HW228393   3.379   8.905  10.449
 8796SOL     OW28394   4.014  10.785   9.907
 8796SOL    HW128395   3.978  10.755   9.823
 8796SOL    HW228396   4.107  10.760   9.903
 8797SOL     OW28397   1.877   1.933   5.618
 8797SOL    HW128398   1.923   1.994   5.560
 8797SOL    HW228399   1.784   1.950   5.602
 8798SOL     OW28400   1.725   1.971   6.932
 8798SOL    HW128401   1.677   2.019   6.864
 8798SOL    HW228402   1.671   1.894   6.950
 8799SOL     OW28403   6.245   4.057   8.137
 8799SOL    HW128404   6.313   4.105   8.184
 8799SOL    HW228405   6.274   3.965   8.141
 8800SOL     OW28406   1.830  10.354  10.715
 8800SOL    HW128407   1.857  10.305  10.792
 8800SOL    HW228408   1.912  10.383  10.675
 8801SOL     OW28409   8.075   4.286   3.495
 8801SOL    HW128410   8.069   4.378   3.518
 8801SOL    HW228411   8.165   4.262   3.516
 8802SOL     OW28412   9.813  10.316  10.617
 8802SOL    HW128413   9.725  10.279  10.613
 8802SOL    HW228414   9.864  10.249  10.663
 8803SOL     OW28415   4.684   8.025  10.570
 8803SOL    HW128416   4.728   7.945  10.600
 8803SOL    HW228417   4.755   8.079  10.535
 8804SOL     OW28418   2.181   0.343   4.913
 8804SOL    HW128419   2.109   0.367   4.854
 8804SOL    HW228420   2.255   0.396   4.884
 8805SOL     OW28421   8.203   0.390   6.132
 8805SOL    HW128422   8.241   0.398   6.044
 8805SOL    HW228423   8.116   0.352   6.117
 8806SOL     OW28424   4.492   1.190   2.156
 8806SOL    HW128425   4.499   1.273   2.201
 8806SOL    HW228426   4.517   1.209   2.065
 8807SOL     OW28427   3.120   3.937   8.770
 8807SOL    HW128428   3.136   4.007   8.707
 8807SOL    HW228429   3.059   3.878   8.725
 8808SOL     OW28430   7.119   3.190   1.140
 8808SOL    HW128431   7.148   3.099   1.147
 8808SOL    HW228432   7.082   3.210   1.226
 8809SOL     OW28433   9.331   8.712   8.554
 8809SOL    HW128434   9.351   8.762   8.633
 8809SOL    HW228435   9.248   8.748   8.523
 8810SOL     OW28436   8.006   7.702   6.961
 8810SOL    HW128437   8.058   7.645   7.018
 8810SOL    HW228438   8.029   7.674   6.872
 8811SOL     OW28439   5.068  10.364   2.443
 8811SOL    HW128440   5.142  10.387   2.499
 8811SOL    HW228441   5.011  10.311   2.498
 8812SOL     OW28442   7.236   3.090   2.174
 8812SOL    HW128443   7.203   3.068   2.086
 8812SOL    HW228444   7.193   3.027   2.232
 8813SOL     OW28445   5.322   9.692   2.132
 8813SOL    HW128446   5.361   9.661   2.050
 8813SOL    HW228447   5.397   9.718   2.186
 8814SOL     OW28448   3.805   3.794   5.123
 8814SOL    HW128449   3.874   3.739   5.086
 8814SOL    HW228450   3.848   3.877   5.141
 8815SOL     OW28451   5.060   0.270   2.034
 8815SOL    HW128452   5.008   0.196   2.003
 8815SOL    HW228453   5.006   0.310   2.102
 8816SOL     OW28454   9.799   8.102   0.585
 8816SOL    HW128455   9.789   8.186   0.630
 8816SOL    HW228456   9.730   8.047   0.621
 8817SOL     OW28457   4.415   8.242   1.081
 8817SOL    HW128458   4.373   8.252   0.995
 8817SOL    HW228459   4.344   8.216   1.139
 8818SOL     OW28460   3.141   4.206   1.675
 8818SOL    HW128461   3.144   4.228   1.582
 8818SOL    HW228462   3.097   4.280   1.716
 8819SOL     OW28463   3.898  10.083   5.894
 8819SOL    HW128464   3.885  10.003   5.842
 8819SOL    HW228465   3.920  10.150   5.829
 8820SOL     OW28466   3.838   2.471   1.533
 8820SOL    HW128467   3.805   2.398   1.586
 8820SOL    HW228468   3.813   2.448   1.443
 8821SOL     OW28469   4.108   0.120   7.975
 8821SOL    HW128470   4.108   0.115   8.070
 8821SOL    HW228471   4.104   0.213   7.955
 8822SOL     OW28472   8.049   7.526   0.652
 8822SOL    HW128473   7.987   7.548   0.721
 8822SOL    HW228474   8.135   7.530   0.694
 8823SOL     OW28475   4.450   9.551   0.999
 8823SOL    HW128476   4.431   9.477   1.056
 8823SOL    HW228477   4.467   9.624   1.058
 8824SOL     OW28478   1.010   0.922   1.519
 8824SOL    HW128479   0.932   0.871   1.497
 8824SOL    HW228480   1.057   0.867   1.582
 8825SOL     OW28481   3.404   6.759   0.690
 8825SOL    HW128482   3.426   6.829   0.629
 8825SOL    HW228483   3.322   6.787   0.730
 8826SOL     OW28484   4.687  10.454   3.910
 8826SOL    HW128485   4.635  10.500   3.975
 8826SOL    HW228486   4.775  10.451   3.947
 8827SOL     OW28487   3.165   2.817   2.582
 8827SOL    HW128488   3.213   2.767   2.515
 8827SOL    HW228489   3.164   2.906   2.548
 8828SOL     OW28490  10.769   0.250   1.308
 8828SOL    HW128491  10.764   0.337   1.269
 8828SOL    HW228492  10.815   0.197   1.243
 8829SOL     OW28493   8.679   1.144   1.935
 8829SOL    HW128494   8.599   1.151   1.987
 8829SOL    HW228495   8.750   1.155   1.998
 8830SOL     OW28496   6.338   4.127   1.411
 8830SOL    HW128497   6.285   4.166   1.480
 8830SOL    HW228498   6.411   4.084   1.457
 8831SOL     OW28499   2.115   1.884   3.765
 8831SOL    HW128500   2.190   1.942   3.752
 8831SOL    HW228501   2.071   1.918   3.842
 8832SOL     OW28502   7.982   2.261   0.144
 8832SOL    HW128503   7.976   2.188   0.082
 8832SOL    HW228504   8.028   2.330   0.096
 8833SOL     OW28505   7.297   4.357   4.161
 8833SOL    HW128506   7.298   4.272   4.205
 8833SOL    HW228507   7.372   4.404   4.197
 8834SOL     OW28508   0.021   8.733   3.053
 8834SOL    HW128509  -0.004   8.641   3.039
 8834SOL    HW228510  -0.060   8.782   3.039
 8835SOL     OW28511   1.197   3.339   4.495
 8835SOL    HW128512   1.290   3.327   4.514
 8835SOL    HW228513   1.169   3.409   4.553
 8836SOL     OW28514   5.371  10.852   2.842
 8836SOL    HW128515   5.434  10.861   2.913
 8836SOL    HW228516   5.308  10.787   2.873
 8837SOL     OW28517   8.678   9.127   1.497
 8837SOL    HW128518   8.709   9.171   1.576
 8837SOL    HW228519   8.584   9.114   1.512
 8838SOL     OW28520   6.386   9.959   7.487
 8838SOL    HW128521   6.317   9.963   7.421
 8838SOL    HW228522   6.459  10.007   7.448
 8839SOL     OW28523   7.369   1.342   1.439
 8839SOL    HW128524   7.416   1.410   1.391
 8839SOL    HW228525   7.285   1.382   1.462
 8840SOL     OW28526  10.482   0.238   0.362
 8840SOL    HW128527  10.488   0.295   0.285
 8840SOL    HW228528  10.405   0.184   0.345
 8841SOL     OW28529   6.686   5.379   9.262
 8841SOL    HW128530   6.740   5.410   9.335
 8841SOL    HW228531   6.693   5.448   9.196
 8842SOL     OW28532   5.548  11.061   3.068
 8842SOL    HW128533   5.549  10.969   3.095
 8842SOL    HW228534   5.630  11.072   3.019
 8843SOL     OW28535  10.006   3.009   2.985
 8843SOL    HW128536  10.042   3.077   3.042
 8843SOL    HW228537   9.946   2.960   3.041
 8844SOL     OW28538   7.899   3.402   8.191
 8844SOL    HW128539   7.929   3.311   8.189
 8844SOL    HW228540   7.811   3.399   8.154
 8845SOL     OW28541   2.584   3.901   3.669
 8845SOL    HW128542   2.657   3.963   3.668
 8845SOL    HW228543   2.510   3.950   3.634
 8846SOL     OW28544   0.583   2.248   8.056
 8846SOL    HW128545   0.605   2.284   7.970
 8846SOL    HW228546   0.645   2.289   8.116
 8847SOL     OW28547   9.912   4.720   4.239
 8847SOL    HW128548   9.995   4.754   4.205
 8847SOL    HW228549   9.930   4.627   4.256
 8848SOL     OW28550   0.673   1.592   1.964
 8848SOL    HW128551   0.681   1.509   1.916
 8848SOL    HW228552   0.736   1.584   2.035
 8849SOL     OW28553   2.008   3.763   0.650
 8849SOL    HW128554   2.097   3.784   0.620
 8849SOL    HW228555   2.020   3.725   0.737
 8850SOL     OW28556   3.865   2.892  10.462
 8850SOL    HW128557   3.877   2.856  10.550
 8850SOL    HW228558   3.873   2.986  10.472
 8851SOL     OW28559   4.384   8.551   1.430
 8851SOL    HW128560   4.312   8.501   1.468
 8851SOL    HW228561   4.365   8.552   1.336
 8852SOL     OW28562   4.144   2.144   2.070
 8852SOL    HW128563   4.159   2.222   2.017
 8852SOL    HW228564   4.232   2.110   2.089
 8853SOL     OW28565   9.924   1.710   7.039
 8853SOL    HW128566   9.980   1.664   6.976
 8853SOL    HW228567   9.847   1.654   7.047
 8854SOL     OW28568   3.586   0.605   6.582
 8854SOL    HW128569   3.529   0.634   6.511
 8854SOL    HW228570   3.629   0.526   6.547
 8855SOL     OW28571   8.986   6.556   4.304
 8855SOL    HW128572   9.074   6.534   4.274
 8855SOL    HW228573   8.983   6.525   4.394
 8856SOL     OW28574   2.642   3.961   3.278
 8856SOL    HW128575   2.711   3.977   3.342
 8856SOL    HW228576   2.688   3.933   3.199
 8857SOL     OW28577   0.464   0.561   0.164
 8857SOL    HW128578   0.535   0.550   0.228
 8857SOL    HW228579   0.503   0.533   0.081
 8858SOL     OW28580   2.500   0.144   4.826
 8858SOL    HW128581   2.462   0.189   4.751
 8858SOL    HW228582   2.506   0.052   4.798
 8859SOL     OW28583   6.883   3.934   2.764
 8859SOL    HW128584   6.794   3.945   2.729
 8859SOL    HW228585   6.910   4.022   2.790
 8860SOL     OW28586   2.242   6.732   0.379
 8860SOL    HW128587   2.148   6.750   0.379
 8860SOL    HW228588   2.272   6.762   0.293
 8861SOL     OW28589   2.827   4.829   9.844
 8861SOL    HW128590   2.746   4.870   9.873
 8861SOL    HW228591   2.812   4.809   9.751
 8862SOL     OW28592   6.016   3.063   0.090
 8862SOL    HW128593   6.070   3.139   0.069
 8862SOL    HW228594   6.065   3.017   0.159
 8863SOL     OW28595   6.933   8.203   5.221
 8863SOL    HW128596   6.966   8.271   5.279
 8863SOL    HW228597   6.885   8.143   5.279
 8864SOL     OW28598   2.802   3.215   0.624
 8864SOL    HW128599   2.882   3.241   0.578
 8864SOL    HW228600   2.746   3.292   0.622
 8865SOL     OW28601   1.470   7.204   0.323
 8865SOL    HW128602   1.396   7.224   0.265
 8865SOL    HW228603   1.545   7.247   0.281
 8866SOL     OW28604   5.041   0.010   4.499
 8866SOL    HW128605   5.046  -0.053   4.571
 8866SOL    HW228606   4.948   0.015   4.478
 8867SOL     OW28607   4.277   8.332   4.030
 8867SOL    HW128608   4.301   8.379   3.950
 8867SOL    HW228609   4.358   8.291   4.059
 8868SOL     OW28610   8.064   9.604   9.801
 8868SOL    HW128611   8.071   9.579   9.708
 8868SOL    HW228612   8.079   9.522   9.848
 8869SOL     OW28613   0.628   0.883   9.578
 8869SOL    HW128614   0.599   0.822   9.646
 8869SOL    HW228615   0.615   0.969   9.616
 8870SOL     OW28616   1.637   2.450   7.032
 8870SOL    HW128617   1.600   2.447   6.943
 8870SOL    HW228618   1.602   2.530   7.070
 8871SOL     OW28619   6.632   9.013   2.929
 8871SOL    HW128620   6.660   9.099   2.960
 8871SOL    HW228621   6.706   8.982   2.876
 8872SOL     OW28622   5.605   2.008   3.385
 8872SOL    HW128623   5.521   2.014   3.340
 8872SOL    HW228624   5.612   2.090   3.434
 8873SOL     OW28625   2.490   4.415   3.999
 8873SOL    HW128626   2.508   4.464   3.919
 8873SOL    HW228627   2.406   4.372   3.982
 8874SOL     OW28628   8.914   7.584   3.854
 8874SOL    HW128629   8.976   7.518   3.886
 8874SOL    HW228630   8.969   7.648   3.809
 8875SOL     OW28631   6.833   8.081   1.937
 8875SOL    HW128632   6.913   8.106   1.890
 8875SOL    HW228633   6.798   8.007   1.887
 8876SOL     OW28634   5.285   0.135   0.727
 8876SOL    HW128635   5.338   0.150   0.805
 8876SOL    HW228636   5.217   0.074   0.755
 8877SOL     OW28637   2.280   5.620   1.962
 8877SOL    HW128638   2.279   5.527   1.985
 8877SOL    HW228639   2.201   5.655   2.003
 8878SOL     OW28640   0.124   2.623   3.885
 8878SOL    HW128641   0.167   2.542   3.914
 8878SOL    HW228642   0.196   2.682   3.864
 8879SOL     OW28643   4.392   8.995   5.726
 8879SOL    HW128644   4.355   8.979   5.639
 8879SOL    HW228645   4.318   9.022   5.780
 8880SOL     OW28646   4.817   4.178   5.233
 8880SOL    HW128647   4.905   4.209   5.254
 8880SOL    HW228648   4.829   4.085   5.212
 8881SOL     OW28649  10.020   7.315   6.523
 8881SOL    HW128650  10.008   7.408   6.504
 8881SOL    HW228651   9.962   7.298   6.597
 8882SOL     OW28652   3.082   0.334   3.814
 8882SOL    HW128653   3.032   0.253   3.803
 8882SOL    HW228654   3.072   0.356   3.906
 8883SOL     OW28655   1.388   2.049   5.471
 8883SOL    HW128656   1.318   1.984   5.475
 8883SOL    HW228657   1.353   2.125   5.516
 8884SOL     OW28658   5.059   3.434   2.954
 8884SOL    HW128659   5.094   3.521   2.972
 8884SOL    HW228660   5.113   3.401   2.882
 8885SOL     OW28661   9.063   2.430  10.354
 8885SOL    HW128662   9.025   2.462  10.435
 8885SOL    HW228663   9.117   2.502  10.322
 8886SOL     OW28664   8.328   8.500   8.050
 8886SOL    HW128665   8.273   8.475   7.975
 8886SOL    HW228666   8.417   8.478   8.021
 8887SOL     OW28667   1.777   2.175   2.114
 8887SOL    HW128668   1.713   2.244   2.129
 8887SOL    HW228669   1.725   2.100   2.084
 8888SOL     OW28670   6.298   9.605   3.134
 8888SOL    HW128671   6.380   9.606   3.183
 8888SOL    HW228672   6.232   9.634   3.197
 8889SOL     OW28673   6.080   1.564   9.485
 8889SOL    HW128674   6.094   1.603   9.399
 8889SOL    HW228675   5.999   1.514   9.475
 8890SOL     OW28676   3.677   9.052   1.235
 8890SOL    HW128677   3.613   9.032   1.303
 8890SOL    HW228678   3.700   9.144   1.249
 8891SOL     OW28679   4.032   8.781   4.724
 8891SOL    HW128680   4.105   8.720   4.739
 8891SOL    HW228681   4.074   8.860   4.691
 8892SOL     OW28682   3.974   3.237   3.473
 8892SOL    HW128683   3.962   3.260   3.381
 8892SOL    HW228684   3.986   3.142   3.473
 8893SOL     OW28685   2.314   6.832   0.120
 8893SOL    HW128686   2.320   6.927   0.123
 8893SOL    HW228687   2.369   6.807   0.046
 8894SOL     OW28688   4.685  10.764   4.839
 8894SOL    HW128689   4.752  10.699   4.818
 8894SOL    HW228690   4.602  10.718   4.825
 8895SOL     OW28691   4.366  10.378   0.115
 8895SOL    HW128692   4.308  10.337   0.179
 8895SOL    HW228693   4.448  10.393   0.163
 8896SOL     OW28694  10.418   4.018   6.496
 8896SOL    HW128695  10.333   4.004   6.536
 8896SOL    HW228696  10.416   4.109   6.467
 8897SOL     OW28697   9.866   3.038   1.749
 8897SOL    HW128698   9.880   3.132   1.756
 8897SOL    HW228699   9.778   3.029   1.712
 8898SOL     OW28700   6.596   0.288   3.144
 8898SOL    HW128701   6.657   0.299   3.071
 8898SOL    HW228702   6.602   0.370   3.193
 8899SOL     OW28703   6.882   2.855  11.094
 8899SOL    HW128704   6.789   2.858  11.115
 8899SOL    HW228705   6.888   2.798  11.017
 8900SOL     OW28706   1.775   3.151   0.920
 8900SOL    HW128707   1.681   3.145   0.905
 8900SOL    HW228708   1.801   3.233   0.879
 8901SOL     OW28709   9.390   4.795   6.698
 8901SOL    HW128710   9.299   4.782   6.672
 8901SOL    HW228711   9.402   4.890   6.696
 8902SOL     OW28712   1.598   8.747   2.074
 8902SOL    HW128713   1.568   8.815   2.013
 8902SOL    HW228714   1.574   8.664   2.031
 8903SOL     OW28715   2.930   1.322  10.687
 8903SOL    HW128716   3.008   1.310  10.633
 8903SOL    HW228717   2.953   1.283  10.771
 8904SOL     OW28718   9.220   0.669   1.725
 8904SOL    HW128719   9.165   0.738   1.761
 8904SOL    HW228720   9.162   0.621   1.665
 8905SOL     OW28721   4.356   1.268   0.503
 8905SOL    HW128722   4.295   1.279   0.430
 8905SOL    HW228723   4.366   1.173   0.512
 8906SOL     OW28724   3.241   2.316   4.985
 8906SOL    HW128725   3.192   2.240   5.018
 8906SOL    HW228726   3.309   2.278   4.929
 8907SOL     OW28727   3.109   0.779  10.530
 8907SOL    HW128728   3.150   0.790  10.444
 8907SOL    HW228729   3.070   0.864  10.549
 8908SOL     OW28730  10.139   2.834  10.086
 8908SOL    HW128731  10.146   2.919  10.129
 8908SOL    HW228732  10.224   2.792  10.101
 8909SOL     OW28733  10.434  10.869   0.615
 8909SOL    HW128734  10.493  10.944   0.618
 8909SOL    HW228735  10.353  10.903   0.578
 8910SOL     OW28736   2.852   6.211   1.466
 8910SOL    HW128737   2.852   6.299   1.429
 8910SOL    HW228738   2.934   6.172   1.434
 8911SOL     OW28739   9.472   3.710   2.581
 8911SOL    HW128740   9.438   3.757   2.656
 8911SOL    HW228741   9.537   3.769   2.542
 8912SOL     OW28742   0.926   2.496   9.278
 8912SOL    HW128743   0.953   2.410   9.309
 8912SOL    HW228744   0.963   2.557   9.341
 8913SOL     OW28745   0.547   9.721   5.571
 8913SOL    HW128746   0.577   9.771   5.647
 8913SOL    HW228747   0.612   9.652   5.560
 8914SOL     OW28748   8.093   0.130   6.133
 8914SOL    HW128749   8.162   0.072   6.165
 8914SOL    HW228750   8.079   0.103   6.042
 8915SOL     OW28751   2.924   9.254  10.296
 8915SOL    HW128752   2.911   9.186  10.230
 8915SOL    HW228753   2.904   9.211  10.379
 8916SOL     OW28754   6.715   8.138   2.248
 8916SOL    HW128755   6.726   8.116   2.155
 8916SOL    HW228756   6.804   8.147   2.281
 8917SOL     OW28757   6.884   7.331   1.421
 8917SOL    HW128758   6.930   7.386   1.358
 8917SOL    HW228759   6.846   7.392   1.484
 8918SOL     OW28760   8.612   1.349   3.248
 8918SOL    HW128761   8.618   1.298   3.167
 8918SOL    HW228762   8.683   1.316   3.303
 8919SOL     OW28763   2.223  10.214   8.215
 8919SOL    HW128764   2.298  10.174   8.259
 8919SOL    HW228765   2.148  10.191   8.269
 8920SOL     OW28766   0.981   0.589   1.994
 8920SOL    HW128767   1.043   0.520   1.967
 8920SOL    HW228768   0.911   0.584   1.929
 8921SOL     OW28769   1.910   9.202  10.791
 8921SOL    HW128770   1.899   9.239  10.878
 8921SOL    HW228771   1.831   9.149  10.776
 8922SOL     OW28772   4.109   3.789  10.170
 8922SOL    HW128773   4.075   3.724  10.108
 8922SOL    HW228774   4.197   3.808  10.138
 8923SOL     OW28775   5.687   3.348  10.417
 8923SOL    HW128776   5.658   3.265  10.456
 8923SOL    HW228777   5.611   3.406  10.425
 8924SOL     OW28778   7.376   2.456   3.463
 8924SOL    HW128779   7.400   2.518   3.394
 8924SOL    HW228780   7.363   2.510   3.541
 8925SOL     OW28781   0.863   1.569   5.667
 8925SOL    HW128782   0.821   1.625   5.732
 8925SOL    HW228783   0.947   1.544   5.706
 8926SOL     OW28784   6.598   7.007   8.785
 8926SOL    HW128785   6.689   6.998   8.755
 8926SOL    HW228786   6.547   7.017   8.704
 8927SOL     OW28787   5.615   0.966  11.026
 8927SOL    HW128788   5.626   1.055  10.993
 8927SOL    HW228789   5.567   0.920  10.956
 8928SOL     OW28790   6.442   0.586   6.486
 8928SOL    HW128791   6.534   0.574   6.510
 8928SOL    HW228792   6.429   0.680   6.488
 8929SOL     OW28793   4.817   1.483   8.342
 8929SOL    HW128794   4.791   1.391   8.338
 8929SOL    HW228795   4.785   1.513   8.427
 8930SOL     OW28796   5.926   0.728   5.041
 8930SOL    HW128797   6.002   0.684   5.079
 8930SOL    HW228798   5.851   0.694   5.090
 8931SOL     OW28799   4.152   0.775   1.581
 8931SOL    HW128800   4.159   0.697   1.525
 8931SOL    HW228801   4.161   0.741   1.670
 8932SOL     OW28802   1.458   1.620   6.641
 8932SOL    HW128803   1.363   1.617   6.651
 8932SOL    HW228804   1.471   1.646   6.550
 8933SOL     OW28805   0.796   5.884   6.497
 8933SOL    HW128806   0.880   5.894   6.542
 8933SOL    HW228807   0.760   5.801   6.530
 8934SOL     OW28808   1.766   4.586   2.689
 8934SOL    HW128809   1.846   4.550   2.727
 8934SOL    HW228810   1.731   4.644   2.756
 8935SOL     OW28811   0.205  10.982   1.753
 8935SOL    HW128812   0.276  10.931   1.714
 8935SOL    HW228813   0.154  11.013   1.678
 8936SOL     OW28814   9.768  10.920   9.196
 8936SOL    HW128815   9.834  10.982   9.165
 8936SOL    HW228816   9.808  10.878   9.272
 8937SOL     OW28817   9.541   2.899   4.972
 8937SOL    HW128818   9.521   2.980   4.925
 8937SOL    HW228819   9.544   2.832   4.904
 8938SOL     OW28820  10.630   5.430   6.903
 8938SOL    HW128821  10.608   5.337   6.892
 8938SOL    HW228822  10.689   5.432   6.978
 8939SOL     OW28823   8.319  10.037   2.427
 8939SOL    HW128824   8.269  10.079   2.497
 8939SOL    HW228825   8.258  10.032   2.353
 8940SOL     OW28826   1.347   2.848   3.303
 8940SOL    HW128827   1.441   2.865   3.311
 8940SOL    HW228828   1.306   2.917   3.355
 8941SOL     OW28829   3.320   1.420   7.238
 8941SOL    HW128830   3.290   1.510   7.249
 8941SOL    HW228831   3.240   1.367   7.241
 8942SOL     OW28832   2.982  10.900   2.574
 8942SOL    HW128833   2.981  10.970   2.508
 8942SOL    HW228834   3.073  10.897   2.603
 8943SOL     OW28835   4.334  10.971   1.678
 8943SOL    HW128836   4.388  10.892   1.678
 8943SOL    HW228837   4.256  10.947   1.728
 8944SOL     OW28838   7.904   0.293   6.879
 8944SOL    HW128839   7.943   0.318   6.795
 8944SOL    HW228840   7.895   0.198   6.873
 8945SOL     OW28841   1.287   2.617   3.769
 8945SOL    HW128842   1.307   2.532   3.808
 8945SOL    HW228843   1.206   2.644   3.812
 8946SOL     OW28844   2.901   7.413   4.236
 8946SOL    HW128845   2.888   7.475   4.164
 8946SOL    HW228846   2.872   7.459   4.314
 8947SOL     OW28847   9.851  10.376   3.237
 8947SOL    HW128848   9.848  10.434   3.312
 8947SOL    HW228849   9.800  10.421   3.169
 8948SOL     OW28850   8.199   2.135   1.994
 8948SOL    HW128851   8.223   2.218   2.034
 8948SOL    HW228852   8.106   2.143   1.975
 8949SOL     OW28853   2.123   1.271   7.826
 8949SOL    HW128854   2.218   1.274   7.811
 8949SOL    HW228855   2.085   1.296   7.742
 8950SOL     OW28856   3.805   1.472   2.416
 8950SOL    HW128857   3.830   1.381   2.398
 8950SOL    HW228858   3.712   1.467   2.436
 8951SOL     OW28859   4.843   2.229   6.852
 8951SOL    HW128860   4.923   2.204   6.898
 8951SOL    HW228861   4.873   2.285   6.780
 8952SOL     OW28862   1.703   6.013   0.558
 8952SOL    HW128863   1.783   5.962   0.572
 8952SOL    HW228864   1.723   6.069   0.483
 8953SOL     OW28865   1.133   4.783   2.749
 8953SOL    HW128866   1.102   4.693   2.764
 8953SOL    HW228867   1.217   4.772   2.703
 8954SOL     OW28868  10.655   4.252   2.919
 8954SOL    HW128869  10.590   4.319   2.936
 8954SOL    HW228870  10.731   4.300   2.886
 8955SOL     OW28871   6.111   9.682   3.327
 8955SOL    HW128872   6.016   9.689   3.315
 8955SOL    HW228873   6.125   9.698   3.420
 8956SOL     OW28874   7.108  10.583  10.838
 8956SOL    HW128875   7.121  10.549  10.749
 8956SOL    HW228876   7.182  10.548  10.888
 8957SOL     OW28877   4.312   4.288   3.413
 8957SOL    HW128878   4.399   4.249   3.405
 8957SOL    HW228879   4.329   4.380   3.430
 8958SOL     OW28880   5.660   5.426   9.784
 8958SOL    HW128881   5.730   5.394   9.840
 8958SOL    HW228882   5.704   5.450   9.702
 8959SOL     OW28883   3.209   1.636   4.846
 8959SOL    HW128884   3.272   1.564   4.839
 8959SOL    HW228885   3.219   1.668   4.935
 8960SOL     OW28886   7.151  10.615   0.886
 8960SOL    HW128887   7.209  10.582   0.955
 8960SOL    HW228888   7.209  10.628   0.810
 8961SOL     OW28889   4.831   5.754   4.752
 8961SOL    HW128890   4.788   5.837   4.731
 8961SOL    HW228891   4.779   5.717   4.823
 8962SOL     OW28892  10.745   8.452   3.483
 8962SOL    HW128893  10.713   8.433   3.571
 8962SOL    HW228894  10.699   8.389   3.427
 8963SOL     OW28895   6.430   5.017   2.534
 8963SOL    HW128896   6.335   5.025   2.533
 8963SOL    HW228897   6.462   5.106   2.522
 8964SOL     OW28898   0.252   7.419   6.151
 8964SOL    HW128899   0.232   7.385   6.064
 8964SOL    HW228900   0.181   7.481   6.169
 8965SOL     OW28901  10.510   7.034   6.190
 8965SOL    HW128902  10.478   7.081   6.266
 8965SOL    HW228903  10.486   7.089   6.115
 8966SOL     OW28904   4.961   4.413   1.441
 8966SOL    HW128905   4.974   4.438   1.349
 8966SOL    HW228906   5.001   4.326   1.448
 8967SOL     OW28907   7.196   7.419   8.080
 8967SOL    HW128908   7.221   7.491   8.022
 8967SOL    HW228909   7.260   7.350   8.060
 8968SOL     OW28910   6.576   9.827   0.007
 8968SOL    HW128911   6.517   9.784   0.069
 8968SOL    HW228912   6.556   9.786  -0.077
 8969SOL     OW28913   2.342   2.291   4.223
 8969SOL    HW128914   2.306   2.291   4.311
 8969SOL    HW228915   2.272   2.326   4.168
 8970SOL     OW28916   0.416   1.142   4.747
 8970SOL    HW128917   0.389   1.233   4.746
 8970SOL    HW228918   0.508   1.144   4.772
 8971SOL     OW28919   1.443   2.399   2.844
 8971SOL    HW128920   1.498   2.322   2.828
 8971SOL    HW228921   1.474   2.433   2.928
 8972SOL     OW28922  10.673  10.095   0.015
 8972SOL    HW128923  10.646  10.170  -0.037
 8972SOL    HW228924  10.761  10.117   0.046
 8973SOL     OW28925   5.100   2.328   4.472
 8973SOL    HW128926   5.022   2.331   4.527
 8973SOL    HW228927   5.142   2.245   4.495
 8974SOL     OW28928   2.823   2.664   6.654
 8974SOL    HW128929   2.913   2.658   6.685
 8974SOL    HW228930   2.823   2.614   6.572
 8975SOL     OW28931   1.211   9.066   8.835
 8975SOL    HW128932   1.169   9.122   8.770
 8975SOL    HW228933   1.162   9.081   8.916
 8976SOL     OW28934  10.286   2.164   1.052
 8976SOL    HW128935  10.246   2.162   1.139
 8976SOL    HW228936  10.213   2.177   0.992
 8977SOL     OW28937   7.566   5.811   1.558
 8977SOL    HW128938   7.621   5.882   1.591
 8977SOL    HW228939   7.525   5.847   1.479
 8978SOL     OW28940   0.880   6.999   7.818
 8978SOL    HW128941   0.967   7.008   7.778
 8978SOL    HW228942   0.897   6.989   7.911
 8979SOL     OW28943   2.006   7.325   4.659
 8979SOL    HW128944   2.037   7.273   4.733
 8979SOL    HW228945   2.046   7.411   4.671
 8980SOL     OW28946   7.343   1.289   3.049
 8980SOL    HW128947   7.410   1.222   3.064
 8980SOL    HW228948   7.265   1.240   3.023
 8981SOL     OW28949   1.162   0.007  10.203
 8981SOL    HW128950   1.126  -0.063  10.258
 8981SOL    HW228951   1.257  -0.003  10.211
 8982SOL     OW28952   2.616   2.483   2.973
 8982SOL    HW128953   2.667   2.523   3.043
 8982SOL    HW228954   2.533   2.530   2.973
 8983SOL     OW28955   4.791   2.981   1.188
 8983SOL    HW128956   4.717   3.030   1.223
 8983SOL    HW228957   4.807   3.020   1.102
 8984SOL     OW28958   1.083   1.244   4.943
 8984SOL    HW128959   1.061   1.337   4.939
 8984SOL    HW228960   1.148   1.232   4.874
 8985SOL     OW28961   9.307   5.101   5.088
 8985SOL    HW128962   9.239   5.103   5.155
 8985SOL    HW228963   9.281   5.029   5.029
 8986SOL     OW28964   5.490   1.461   6.938
 8986SOL    HW128965   5.400   1.489   6.953
 8986SOL    HW228966   5.488   1.417   6.853
 8987SOL     OW28967   4.427   3.073   3.110
 8987SOL    HW128968   4.487   3.059   3.036
 8987SOL    HW228969   4.471   3.138   3.165
 8988SOL     OW28970   6.041   7.017   0.248
 8988SOL    HW128971   6.023   7.109   0.230
 8988SOL    HW228972   6.122   7.017   0.299
 8989SOL     OW28973   1.628   0.528   7.856
 8989SOL    HW128974   1.565   0.497   7.921
 8989SOL    HW228975   1.707   0.547   7.906
 8990SOL     OW28976   6.683   0.653   9.428
 8990SOL    HW128977   6.609   0.595   9.409
 8990SOL    HW228978   6.731   0.658   9.345
 8991SOL     OW28979   5.337   4.978   1.021
 8991SOL    HW128980   5.285   4.899   1.039
 8991SOL    HW228981   5.427   4.946   1.016
 8992SOL     OW28982   6.843   8.557   3.051
 8992SOL    HW128983   6.783   8.498   3.005
 8992SOL    HW228984   6.833   8.535   3.143
 8993SOL     OW28985   0.177   2.078   4.494
 8993SOL    HW128986   0.141   1.991   4.513
 8993SOL    HW228987   0.253   2.086   4.552
 8994SOL     OW28988  10.231   1.645   3.365
 8994SOL    HW128989  10.187   1.714   3.315
 8994SOL    HW228990  10.175   1.632   3.441
 8995SOL     OW28991   8.339   8.885   1.880
 8995SOL    HW128992   8.294   8.958   1.923
 8995SOL    HW228993   8.268   8.831   1.845
 8996SOL     OW28994   4.212   6.334   1.657
 8996SOL    HW128995   4.206   6.301   1.746
 8996SOL    HW228996   4.303   6.363   1.648
 8997SOL     OW28997   9.711   2.108   2.444
 8997SOL    HW128998   9.632   2.078   2.488
 8997SOL    HW228999   9.698   2.202   2.433
 8998SOL     OW29000   5.378   2.200   0.938
 8998SOL    HW129001   5.320   2.259   0.985
 8998SOL    HW229002   5.373   2.229   0.847
 8999SOL     OW29003   5.076   6.215   5.094
 8999SOL    HW129004   5.042   6.241   5.179
 8999SOL    HW229005   5.039   6.128   5.079
 9000SOL     OW29006  11.034   1.471   4.791
 9000SOL    HW129007  11.102   1.425   4.840
 9000SOL    HW229008  10.996   1.532   4.853
 9001SOL     OW29009   7.302   2.008   6.705
 9001SOL    HW129010   7.210   1.982   6.700
 9001SOL    HW229011   7.327   1.992   6.796
 9002SOL     OW29012   1.950   3.569   2.766
 9002SOL    HW129013   1.892   3.621   2.711
 9002SOL    HW229014   1.914   3.480   2.762
 9003SOL     OW29015   3.183   4.110   4.010
 9003SOL    HW129016   3.088   4.097   4.003
 9003SOL    HW229017   3.219   4.060   3.937
 9004SOL     OW29018   9.430   6.265   5.612
 9004SOL    HW129019   9.441   6.203   5.684
 9004SOL    HW229020   9.390   6.213   5.542
 9005SOL     OW29021   9.085   2.671   3.645
 9005SOL    HW129022   9.080   2.766   3.653
 9005SOL    HW229023   9.040   2.638   3.723
 9006SOL     OW29024   0.984   5.760   5.871
 9006SOL    HW129025   1.076   5.750   5.845
 9006SOL    HW229026   0.960   5.847   5.840
 9007SOL     OW29027   1.233   8.927   6.477
 9007SOL    HW129028   1.294   8.857   6.501
 9007SOL    HW229029   1.286   8.989   6.427
 9008SOL     OW29030   4.036   9.643   3.071
 9008SOL    HW129031   3.982   9.665   3.146
 9008SOL    HW229032   4.043   9.724   3.021
 9009SOL     OW29033   1.102   0.665   5.263
 9009SOL    HW129034   1.116   0.573   5.286
 9009SOL    HW229035   1.074   0.706   5.344
 9010SOL     OW29036   1.270   2.301   4.187
 9010SOL    HW129037   1.283   2.240   4.113
 9010SOL    HW229038   1.268   2.244   4.264
 9011SOL     OW29039  11.023   5.929   4.095
 9011SOL    HW129040  11.062   5.842   4.108
 9011SOL    HW229041  10.929   5.914   4.102
 9012SOL     OW29042   1.434   2.565   1.570
 9012SOL    HW129043   1.528   2.563   1.586
 9012SOL    HW229044   1.425   2.537   1.479
 9013SOL     OW29045   0.089   3.440   6.823
 9013SOL    HW129046   0.016   3.381   6.805
 9013SOL    HW229047   0.157   3.383   6.860
 9014SOL     OW29048   2.698   9.576  10.143
 9014SOL    HW129049   2.733   9.644  10.200
 9014SOL    HW229050   2.649   9.624  10.076
 9015SOL     OW29051   9.558   2.454   6.334
 9015SOL    HW129052   9.508   2.404   6.399
 9015SOL    HW229053   9.498   2.464   6.260
 9016SOL     OW29054  11.061   7.841   4.251
 9016SOL    HW129055  11.044   7.819   4.342
 9016SOL    HW229056  11.006   7.780   4.201
 9017SOL     OW29057   0.528   0.749   9.975
 9017SOL    HW129058   0.598   0.765   9.912
 9017SOL    HW229059   0.493   0.663   9.950
 9018SOL     OW29060   5.291   9.939   2.989
 9018SOL    HW129061   5.339   9.960   2.909
 9018SOL    HW229062   5.293   9.843   2.993
 9019SOL     OW29063   2.750   9.677   0.854
 9019SOL    HW129064   2.689   9.622   0.804
 9019SOL    HW229065   2.820   9.617   0.880
 9020SOL     OW29066   9.040   8.995   4.466
 9020SOL    HW129067   9.012   9.032   4.382
 9020SOL    HW229068   9.127   9.032   4.481
 9021SOL     OW29069   9.781   6.081   3.412
 9021SOL    HW129070   9.819   6.130   3.339
 9021SOL    HW229071   9.719   6.142   3.452
 9022SOL     OW29072   2.168   1.202   3.606
 9022SOL    HW129073   2.224   1.252   3.547
 9022SOL    HW229074   2.125   1.138   3.549
 9023SOL     OW29075   8.281   7.155   3.029
 9023SOL    HW129076   8.263   7.066   2.999
 9023SOL    HW229077   8.212   7.208   2.990
 9024SOL     OW29078   1.399   5.071   0.028
 9024SOL    HW129079   1.314   5.108   0.050
 9024SOL    HW229080   1.453   5.146   0.004
 9025SOL     OW29081   3.400   2.303   8.158
 9025SOL    HW129082   3.342   2.378   8.170
 9025SOL    HW229083   3.484   2.331   8.194
 9026SOL     OW29084   6.793   7.421   7.941
 9026SOL    HW129085   6.707   7.444   7.905
 9026SOL    HW229086   6.851   7.419   7.864
 9027SOL     OW29087   4.975   0.344   5.749
 9027SOL    HW129088   5.029   0.272   5.783
 9027SOL    HW229089   5.038   0.408   5.716
 9028SOL     OW29090   3.518  10.023   1.430
 9028SOL    HW129091   3.525   9.947   1.371
 9028SOL    HW229092   3.437  10.008   1.479
 9029SOL     OW29093  11.007   9.478   9.904
 9029SOL    HW129094  11.058   9.558   9.896
 9029SOL    HW229095  11.063   9.410   9.866
 9030SOL     OW29096  11.052   9.528   4.455
 9030SOL    HW129097  11.062   9.609   4.406
 9030SOL    HW229098  10.996   9.551   4.529
 9031SOL     OW29099   4.555   7.908   4.778
 9031SOL    HW129100   4.572   7.814   4.763
 9031SOL    HW229101   4.467   7.911   4.814
 9032SOL     OW29102   0.535   6.324   9.726
 9032SOL    HW129103   0.519   6.239   9.767
 9032SOL    HW229104   0.453   6.372   9.739
 9033SOL     OW29105   3.590   0.321   2.904
 9033SOL    HW129106   3.534   0.398   2.893
 9033SOL    HW229107   3.529   0.248   2.913
 9034SOL     OW29108   0.747   4.850   4.091
 9034SOL    HW129109   0.718   4.941   4.088
 9034SOL    HW229110   0.827   4.852   4.143
 9035SOL     OW29111   1.081   0.252   6.639
 9035SOL    HW129112   1.101   0.161   6.663
 9035SOL    HW229113   1.064   0.248   6.545
 9036SOL     OW29114   1.494   2.945   4.068
 9036SOL    HW129115   1.581   2.909   4.048
 9036SOL    HW229116   1.438   2.910   3.998
 9037SOL     OW29117   4.174   0.656   3.644
 9037SOL    HW129118   4.266   0.659   3.672
 9037SOL    HW229119   4.156   0.562   3.633
 9038SOL     OW29120   6.836   1.089  10.696
 9038SOL    HW129121   6.799   1.008  10.661
 9038SOL    HW229122   6.803   1.094  10.785
 9039SOL     OW29123   8.017   2.205   2.487
 9039SOL    HW129124   8.102   2.166   2.507
 9039SOL    HW229125   7.956   2.159   2.544
 9040SOL     OW29126   1.092   2.396  10.900
 9040SOL    HW129127   1.114   2.446  10.978
 9040SOL    HW229128   1.087   2.305  10.930
 9041SOL     OW29129   0.901   4.077   4.122
 9041SOL    HW129130   0.911   4.169   4.147
 9041SOL    HW229131   0.990   4.042   4.123
 9042SOL     OW29132   9.166   5.861   4.087
 9042SOL    HW129133   9.197   5.893   4.171
 9042SOL    HW229134   9.071   5.875   4.088
 9043SOL     OW29135   0.791   7.579   8.683
 9043SOL    HW129136   0.865   7.562   8.624
 9043SOL    HW229137   0.776   7.495   8.727
 9044SOL     OW29138   1.170  10.446   2.282
 9044SOL    HW129139   1.155  10.352   2.271
 9044SOL    HW229140   1.228  10.470   2.209
 9045SOL     OW29141   4.672  10.806   9.169
 9045SOL    HW129142   4.761  10.788   9.200
 9045SOL    HW229143   4.632  10.719   9.161
 9046SOL     OW29144   5.071   8.974   1.608
 9046SOL    HW129145   5.042   9.004   1.522
 9046SOL    HW229146   5.148   9.028   1.627
 9047SOL     OW29147   4.717   9.782   6.308
 9047SOL    HW129148   4.747   9.706   6.258
 9047SOL    HW229149   4.638   9.751   6.352
 9048SOL     OW29150   4.528   8.834   4.547
 9048SOL    HW129151   4.592   8.904   4.549
 9048SOL    HW229152   4.557   8.778   4.474
 9049SOL     OW29153  10.135   9.915   9.854
 9049SOL    HW129154  10.136   9.879   9.765
 9049SOL    HW229155  10.043   9.934   9.871
 9050SOL     OW29156   1.200   8.087   1.572
 9050SOL    HW129157   1.120   8.085   1.623
 9050SOL    HW229158   1.217   8.180   1.557
 9051SOL     OW29159   4.417  10.679  10.289
 9051SOL    HW129160   4.333  10.634  10.285
 9051SOL    HW229161   4.473  10.632  10.227
 9052SOL     OW29162   3.619   2.650   3.917
 9052SOL    HW129163   3.601   2.689   4.002
 9052SOL    HW229164   3.550   2.682   3.859
 9053SOL     OW29165   1.300  10.379   9.117
 9053SOL    HW129166   1.252  10.455   9.149
 9053SOL    HW229167   1.390  10.410   9.105
 9054SOL     OW29168   3.910   2.156   7.933
 9054SOL    HW129169   3.866   2.201   8.005
 9054SOL    HW229170   3.854   2.080   7.915
 9055SOL     OW29171   8.167   1.493   3.404
 9055SOL    HW129172   8.082   1.513   3.366
 9055SOL    HW229173   8.188   1.568   3.458
 9056SOL     OW29174   3.263   5.928   0.068
 9056SOL    HW129175   3.233   5.855   0.124
 9056SOL    HW229176   3.186   5.952   0.016
 9057SOL     OW29177   0.761  10.130  10.517
 9057SOL    HW129178   0.827  10.155  10.581
 9057SOL    HW229179   0.810  10.083  10.449
 9058SOL     OW29180   0.160   9.211   4.225
 9058SOL    HW129181   0.133   9.164   4.304
 9058SOL    HW229182   0.090   9.275   4.209
 9059SOL     OW29183   4.634   3.207   0.796
 9059SOL    HW129184   4.567   3.270   0.822
 9059SOL    HW229185   4.640   3.216   0.701
 9060SOL     OW29186   5.225  10.504   3.968
 9060SOL    HW129187   5.280  10.582   3.973
 9060SOL    HW229188   5.264  10.443   4.030
 9061SOL     OW29189   2.987   2.040  10.378
 9061SOL    HW129190   3.026   1.953  10.368
 9061SOL    HW229191   2.997   2.060  10.471
 9062SOL     OW29192   4.286   9.495  10.945
 9062SOL    HW129193   4.330   9.452  11.018
 9062SOL    HW229194   4.225   9.429  10.912
 9063SOL     OW29195   8.364   7.107   6.346
 9063SOL    HW129196   8.299   7.112   6.416
 9063SOL    HW229197   8.418   7.031   6.369
 9064SOL     OW29198  10.493   4.189   4.358
 9064SOL    HW129199  10.411   4.145   4.379
 9064SOL    HW229200  10.529   4.139   4.285
 9065SOL     OW29201   5.698   1.388   8.646
 9065SOL    HW129202   5.673   1.296   8.635
 9065SOL    HW229203   5.622   1.437   8.616
 9066SOL     OW29204   3.913   0.449   7.420
 9066SOL    HW129205   3.878   0.365   7.449
 9066SOL    HW229206   3.838   0.496   7.385
 9067SOL     OW29207   1.138   8.336   8.288
 9067SOL    HW129208   1.127   8.430   8.277
 9067SOL    HW229209   1.196   8.310   8.216
 9068SOL     OW29210   9.911   3.658   2.003
 9068SOL    HW129211   9.940   3.710   2.077
 9068SOL    HW229212   9.877   3.577   2.042
 9069SOL     OW29213   8.035   4.316   3.841
 9069SOL    HW129214   8.021   4.378   3.770
 9069SOL    HW229215   8.125   4.332   3.869
 9070SOL     OW29216   2.398   7.353   1.577
 9070SOL    HW129217   2.387   7.271   1.528
 9070SOL    HW229218   2.434   7.325   1.661
 9071SOL     OW29219   5.220   3.116   3.441
 9071SOL    HW129220   5.220   3.183   3.373
 9071SOL    HW229221   5.133   3.077   3.436
 9072SOL     OW29222  10.806  10.734   2.280
 9072SOL    HW129223  10.785  10.767   2.367
 9072SOL    HW229224  10.805  10.812   2.224
 9073SOL     OW29225   1.394   2.862   1.945
 9073SOL    HW129226   1.301   2.873   1.962
 9073SOL    HW229227   1.403   2.872   1.850
 9074SOL     OW29228   0.061   1.945   7.158
 9074SOL    HW129229   0.079   2.013   7.093
 9074SOL    HW229230  -0.001   1.985   7.218
 9075SOL     OW29231   4.161   2.141   4.833
 9075SOL    HW129232   4.090   2.085   4.865
 9075SOL    HW229233   4.119   2.199   4.769
 9076SOL     OW29234   5.370   7.605   1.033
 9076SOL    HW129235   5.296   7.564   1.077
 9076SOL    HW229236   5.345   7.697   1.024
 9077SOL     OW29237   9.866   2.537   2.227
 9077SOL    HW129238   9.817   2.469   2.180
 9077SOL    HW229239   9.923   2.575   2.160
 9078SOL     OW29240   3.266   9.746   7.651
 9078SOL    HW129241   3.205   9.813   7.621
 9078SOL    HW229242   3.237   9.666   7.606
 9079SOL     OW29243   5.611   0.333   2.283
 9079SOL    HW129244   5.519   0.313   2.268
 9079SOL    HW229245   5.626   0.310   2.374
 9080SOL     OW29246   1.984  10.931   2.998
 9080SOL    HW129247   1.927  10.951   2.924
 9080SOL    HW229248   1.977  10.836   3.009
 9081SOL     OW29249  10.887   9.845   3.243
 9081SOL    HW129250  10.928   9.891   3.170
 9081SOL    HW229251  10.901   9.901   3.319
 9082SOL     OW29252   5.381   1.620   3.779
 9082SOL    HW129253   5.468   1.628   3.819
 9082SOL    HW229254   5.376   1.528   3.751
 9083SOL     OW29255   4.811   2.013   1.461
 9083SOL    HW129256   4.779   1.932   1.420
 9083SOL    HW229257   4.790   2.081   1.397
 9084SOL     OW29258   6.903   6.505   4.595
 9084SOL    HW129259   6.974   6.569   4.595
 9084SOL    HW229260   6.834   6.545   4.542
 9085SOL     OW29261   2.774   1.091   5.335
 9085SOL    HW129262   2.744   1.101   5.425
 9085SOL    HW229263   2.738   1.006   5.307
 9086SOL     OW29264   2.342  10.398   3.133
 9086SOL    HW129265   2.419  10.453   3.118
 9086SOL    HW229266   2.282  10.453   3.182
 9087SOL     OW29267   7.968   0.071   6.381
 9087SOL    HW129268   8.004   0.062   6.292
 9087SOL    HW229269   7.943   0.163   6.387
 9088SOL     OW29270   3.716   8.718   6.578
 9088SOL    HW129271   3.677   8.749   6.496
 9088SOL    HW229272   3.742   8.627   6.559
 9089SOL     OW29273   2.104   6.936   1.973
 9089SOL    HW129274   2.198   6.942   1.957
 9089SOL    HW229275   2.079   6.850   1.939
 9090SOL     OW29276  10.053   5.074   5.426
 9090SOL    HW129277  10.038   5.075   5.331
 9090SOL    HW229278  10.132   5.126   5.438
 9091SOL     OW29279   1.473   9.277   5.368
 9091SOL    HW129280   1.446   9.280   5.459
 9091SOL    HW229281   1.407   9.328   5.321
 9092SOL     OW29282   2.238   3.303   9.709
 9092SOL    HW129283   2.226   3.210   9.690
 9092SOL    HW229284   2.270   3.340   9.627
 9093SOL     OW29285  10.950   2.719   5.047
 9093SOL    HW129286  10.859   2.709   5.019
 9093SOL    HW229287  10.994   2.757   4.971
 9094SOL     OW29288   2.302   5.500   9.609
 9094SOL    HW129289   2.231   5.563   9.616
 9094SOL    HW229290   2.273   5.424   9.661
 9095SOL     OW29291   7.375   1.350   6.783
 9095SOL    HW129292   7.450   1.347   6.843
 9095SOL    HW229293   7.319   1.278   6.812
 9096SOL     OW29294   1.269   1.606   4.342
 9096SOL    HW129295   1.183   1.645   4.355
 9096SOL    HW229296   1.257   1.513   4.362
 9097SOL     OW29297   7.261   7.559   0.154
 9097SOL    HW129298   7.351   7.541   0.126
 9097SOL    HW229299   7.263   7.649   0.185
 9098SOL     OW29300   4.628   4.963   3.594
 9098SOL    HW129301   4.670   5.049   3.597
 9098SOL    HW229302   4.663   4.916   3.670
 9099SOL     OW29303   2.258   9.334   1.829
 9099SOL    HW129304   2.279   9.391   1.755
 9099SOL    HW229305   2.298   9.250   1.806
 9100SOL     OW29306   3.966   2.360   8.638
 9100SOL    HW129307   3.920   2.425   8.691
 9100SOL    HW229308   4.059   2.378   8.652
 9101SOL     OW29309   4.946   3.879   3.099
 9101SOL    HW129310   4.918   3.824   3.026
 9101SOL    HW229311   5.001   3.821   3.152
 9102SOL     OW29312   2.543   7.399   2.866
 9102SOL    HW129313   2.574   7.489   2.865
 9102SOL    HW229314   2.485   7.393   2.790
 9103SOL     OW29315   1.345   4.999   5.202
 9103SOL    HW129316   1.419   4.980   5.260
 9103SOL    HW229317   1.359   4.942   5.126
 9104SOL     OW29318   4.452   1.234   8.655
 9104SOL    HW129319   4.522   1.182   8.615
 9104SOL    HW229320   4.432   1.301   8.589
 9105SOL     OW29321   5.268   5.794   9.324
 9105SOL    HW129322   5.305   5.877   9.295
 9105SOL    HW229323   5.184   5.817   9.363
 9106SOL     OW29324  10.009   0.908   1.952
 9106SOL    HW129325  10.021   0.995   1.990
 9106SOL    HW229326  10.095   0.885   1.917
 9107SOL     OW29327   3.878   0.489   0.008
 9107SOL    HW129328   3.903   0.401   0.036
 9107SOL    HW229329   3.785   0.482  -0.013
 9108SOL     OW29330   3.530   5.525   3.866
 9108SOL    HW129331   3.500   5.449   3.816
 9108SOL    HW229332   3.544   5.593   3.800
 9109SOL     OW29333   2.959   5.746   9.469
 9109SOL    HW129334   2.917   5.660   9.478
 9109SOL    HW229335   2.899   5.807   9.511
 9110SOL     OW29336   6.751   9.275   4.613
 9110SOL    HW129337   6.723   9.194   4.569
 9110SOL    HW229338   6.757   9.251   4.705
 9111SOL     OW29339   6.728   1.879   0.013
 9111SOL    HW129340   6.814   1.876  -0.030
 9111SOL    HW229341   6.730   1.959   0.066
 9112SOL     OW29342   5.162   5.142   9.632
 9112SOL    HW129343   5.207   5.214   9.587
 9112SOL    HW229344   5.100   5.108   9.567
 9113SOL     OW29345   8.659   4.804   2.775
 9113SOL    HW129346   8.615   4.792   2.690
 9113SOL    HW229347   8.656   4.898   2.791
 9114SOL     OW29348   2.670   3.729   2.061
 9114SOL    HW129349   2.727   3.805   2.057
 9114SOL    HW229350   2.726   3.656   2.033
 9115SOL     OW29351   5.544   3.850   9.405
 9115SOL    HW129352   5.478   3.919   9.403
 9115SOL    HW229353   5.621   3.891   9.444
 9116SOL     OW29354   1.986   6.626   9.392
 9116SOL    HW129355   2.070   6.581   9.404
 9116SOL    HW229356   2.006   6.696   9.330
 9117SOL     OW29357   7.032   8.384   8.268
 9117SOL    HW129358   7.038   8.409   8.175
 9117SOL    HW229359   7.005   8.464   8.312
 9118SOL     OW29360   5.690   4.099   0.179
 9118SOL    HW129361   5.673   4.041   0.105
 9118SOL    HW229362   5.603   4.128   0.208
 9119SOL     OW29363   7.647   9.893   7.855
 9119SOL    HW129364   7.607   9.925   7.774
 9119SOL    HW229365   7.616   9.953   7.922
 9120SOL     OW29366   2.988   2.740   1.151
 9120SOL    HW129367   2.997   2.767   1.060
 9120SOL    HW229368   2.900   2.704   1.156
 9121SOL     OW29369   2.926   8.380  10.785
 9121SOL    HW129370   2.967   8.303  10.745
 9121SOL    HW229371   2.997   8.444  10.791
 9122SOL     OW29372   1.621   8.906   7.230
 9122SOL    HW129373   1.650   8.829   7.279
 9122SOL    HW229374   1.671   8.978   7.267
 9123SOL     OW29375   0.951   0.824   9.785
 9123SOL    HW129376   0.875   0.844   9.839
 9123SOL    HW229377   0.925   0.748   9.733
 9124SOL     OW29378   8.294   3.380  10.572
 9124SOL    HW129379   8.296   3.284  10.581
 9124SOL    HW229380   8.356   3.411  10.638
 9125SOL     OW29381  10.802   1.830   4.012
 9125SOL    HW129382  10.813   1.777   4.091
 9125SOL    HW229383  10.855   1.908   4.027
 9126SOL     OW29384   8.782   0.705   2.069
 9126SOL    HW129385   8.808   0.640   2.134
 9126SOL    HW229386   8.740   0.774   2.119
 9127SOL     OW29387   1.694  10.700   9.755
 9127SOL    HW129388   1.659  10.651   9.680
 9127SOL    HW229389   1.717  10.633   9.819
 9128SOL     OW29390   8.292   3.708   3.569
 9128SOL    HW129391   8.226   3.723   3.501
 9128SOL    HW229392   8.361   3.772   3.550
 9129SOL     OW29393   1.749   3.869   8.529
 9129SOL    HW129394   1.761   3.930   8.456
 9129SOL    HW229395   1.834   3.868   8.574
 9130SOL     OW29396   8.916   1.116   0.456
 9130SOL    HW129397   8.879   1.047   0.401
 9130SOL    HW229398   8.995   1.076   0.494
 9131SOL     OW29399  10.947   6.991   4.146
 9131SOL    HW129400  10.859   6.955   4.134
 9131SOL    HW229401  11.003   6.934   4.093
 9132SOL     OW29402   5.297   4.535   0.512
 9132SOL    HW129403   5.204   4.512   0.505
 9132SOL    HW229404   5.297   4.625   0.543
 9133SOL     OW29405   5.909   6.575   0.381
 9133SOL    HW129406   5.823   6.588   0.421
 9133SOL    HW229407   5.890   6.533   0.297
 9134SOL     OW29408   3.112   1.268   5.120
 9134SOL    HW129409   3.063   1.272   5.202
 9134SOL    HW229410   3.060   1.319   5.058
 9135SOL     OW29411   2.830   9.817   7.036
 9135SOL    HW129412   2.844   9.864   7.118
 9135SOL    HW229413   2.819   9.885   6.970
 9136SOL     OW29414   9.424   0.645   3.812
 9136SOL    HW129415   9.332   0.632   3.790
 9136SOL    HW229416   9.431   0.737   3.838
 9137SOL     OW29417   9.207   4.119   1.544
 9137SOL    HW129418   9.190   4.190   1.482
 9137SOL    HW229419   9.288   4.144   1.588
 9138SOL     OW29420   4.199   3.529   3.768
 9138SOL    HW129421   4.161   3.507   3.853
 9138SOL    HW229422   4.191   3.448   3.717
 9139SOL     OW29423  10.180  10.225   7.594
 9139SOL    HW129424  10.269  10.259   7.585
 9139SOL    HW229425  10.127  10.283   7.540
 9140SOL     OW29426   0.902   0.264   0.035
 9140SOL    HW129427   0.963   0.238  -0.034
 9140SOL    HW229428   0.942   0.342   0.074
 9141SOL     OW29429   7.229   5.851   4.881
 9141SOL    HW129430   7.274   5.933   4.860
 9141SOL    HW229431   7.299   5.790   4.905
 9142SOL     OW29432   5.285   5.916  10.270
 9142SOL    HW129433   5.221   5.983  10.293
 9142SOL    HW229434   5.346   5.915  10.343
 9143SOL     OW29435   6.015   2.237   2.494
 9143SOL    HW129436   5.956   2.165   2.516
 9143SOL    HW229437   6.036   2.277   2.578
 9144SOL     OW29438   3.640   0.090   3.713
 9144SOL    HW129439   3.663   0.176   3.748
 9144SOL    HW229440   3.544   0.088   3.714
 9145SOL     OW29441   3.393   3.699   1.939
 9145SOL    HW129442   3.398   3.689   2.034
 9145SOL    HW229443   3.475   3.743   1.915
 9146SOL     OW29444   6.394   3.633  11.089
 9146SOL    HW129445   6.438   3.702  11.039
 9146SOL    HW229446   6.375   3.565  11.024
 9147SOL     OW29447   7.238   1.603  10.173
 9147SOL    HW129448   7.301   1.559  10.116
 9147SOL    HW229449   7.284   1.681  10.203
 9148SOL     OW29450   0.292   2.555   5.844
 9148SOL    HW129451   0.280   2.626   5.781
 9148SOL    HW229452   0.258   2.477   5.799
 9149SOL     OW29453   4.641  10.497   5.872
 9149SOL    HW129454   4.601  10.412   5.852
 9149SOL    HW229455   4.692  10.518   5.793
 9150SOL     OW29456   3.687   1.209   6.378
 9150SOL    HW129457   3.780   1.200   6.401
 9150SOL    HW229458   3.687   1.227   6.284
 9151SOL     OW29459   2.206   2.760   5.333
 9151SOL    HW129460   2.180   2.812   5.257
 9151SOL    HW229461   2.214   2.671   5.298
 9152SOL     OW29462   6.196  10.772   5.403
 9152SOL    HW129463   6.163  10.749   5.316
 9152SOL    HW229464   6.127  10.825   5.442
 9153SOL     OW29465   1.314   1.286   6.243
 9153SOL    HW129466   1.261   1.206   6.240
 9153SOL    HW229467   1.380   1.268   6.310
 9154SOL     OW29468   2.000   2.712   0.047
 9154SOL    HW129469   1.952   2.699   0.129
 9154SOL    HW229470   2.075   2.653   0.054
 9155SOL     OW29471   4.092   6.194   1.447
 9155SOL    HW129472   4.068   6.269   1.392
 9155SOL    HW229473   4.128   6.232   1.527
 9156SOL     OW29474   4.699   4.466   3.745
 9156SOL    HW129475   4.726   4.450   3.654
 9156SOL    HW229476   4.605   4.484   3.739
 9157SOL     OW29477   6.764   9.917   6.088
 9157SOL    HW129478   6.771   9.858   6.163
 9157SOL    HW229479   6.717   9.866   6.022
 9158SOL     OW29480   1.904   6.466   5.739
 9158SOL    HW129481   1.905   6.436   5.648
 9158SOL    HW229482   1.812   6.485   5.757
 9159SOL     OW29483   8.445   0.024   7.216
 9159SOL    HW129484   8.525   0.023   7.269
 9159SOL    HW229485   8.374   0.030   7.280
 9160SOL     OW29486   4.965   4.809   7.364
 9160SOL    HW129487   4.933   4.886   7.410
 9160SOL    HW229488   5.011   4.758   7.430
 9161SOL     OW29489   2.285   4.994   7.129
 9161SOL    HW129490   2.212   5.023   7.073
 9161SOL    HW229491   2.260   5.019   7.217
 9162SOL     OW29492   0.032   0.717   1.424
 9162SOL    HW129493   0.094   0.768   1.373
 9162SOL    HW229494   0.069   0.715   1.512
 9163SOL     OW29495   5.785   2.711   8.219
 9163SOL    HW129496   5.790   2.665   8.303
 9163SOL    HW229497   5.836   2.791   8.232
 9164SOL     OW29498   6.641   5.865   7.479
 9164SOL    HW129499   6.664   5.820   7.560
 9164SOL    HW229500   6.678   5.952   7.488
 9165SOL     OW29501   4.859   1.880  10.303
 9165SOL    HW129502   4.836   1.947  10.367
 9165SOL    HW229503   4.780   1.869  10.249
 9166SOL     OW29504   1.449   4.070   3.734
 9166SOL    HW129505   1.397   4.089   3.811
 9166SOL    HW229506   1.390   4.087   3.660
 9167SOL     OW29507   6.386   3.618   4.201
 9167SOL    HW129508   6.479   3.628   4.219
 9167SOL    HW229509   6.373   3.523   4.196
 9168SOL     OW29510   2.158   2.180   6.108
 9168SOL    HW129511   2.131   2.217   6.192
 9168SOL    HW229512   2.207   2.250   6.065
 9169SOL     OW29513   7.709   1.697   1.811
 9169SOL    HW129514   7.748   1.652   1.886
 9169SOL    HW229515   7.715   1.633   1.739
 9170SOL     OW29516   4.986   7.248   0.880
 9170SOL    HW129517   5.049   7.187   0.841
 9170SOL    HW229518   4.929   7.192   0.932
 9171SOL     OW29519   6.957   5.654   3.683
 9171SOL    HW129520   6.890   5.668   3.616
 9171SOL    HW229521   6.912   5.606   3.752
 9172SOL     OW29522   9.801   4.705   6.701
 9172SOL    HW129523   9.818   4.799   6.699
 9172SOL    HW229524   9.833   4.673   6.616
 9173SOL     OW29525   9.546  10.677   5.288
 9173SOL    HW129526   9.498  10.607   5.331
 9173SOL    HW229527   9.574  10.734   5.359
 9174SOL     OW29528   7.806   1.458   4.003
 9174SOL    HW129529   7.787   1.521   4.072
 9174SOL    HW229530   7.896   1.430   4.020
 9175SOL     OW29531   3.226   5.947   7.944
 9175SOL    HW129532   3.271   5.979   7.865
 9175SOL    HW229533   3.206   5.855   7.924
 9176SOL     OW29534   5.037  10.709   2.578
 9176SOL    HW129535   4.946  10.690   2.601
 9176SOL    HW229536   5.086  10.697   2.659
 9177SOL     OW29537   8.432   4.930   8.483
 9177SOL    HW129538   8.340   4.913   8.464
 9177SOL    HW229539   8.432   4.962   8.573
 9178SOL     OW29540   0.865   9.945   7.186
 9178SOL    HW129541   0.788   9.970   7.237
 9178SOL    HW229542   0.836   9.950   7.095
 9179SOL     OW29543   5.944   0.595   9.383
 9179SOL    HW129544   5.859   0.564   9.414
 9179SOL    HW229545   5.923   0.667   9.323
 9180SOL     OW29546   3.130   7.336   9.516
 9180SOL    HW129547   3.133   7.242   9.499
 9180SOL    HW229548   3.041   7.362   9.493
 9181SOL     OW29549   0.550   0.425   7.245
 9181SOL    HW129550   0.642   0.450   7.248
 9181SOL    HW229551   0.535   0.398   7.154
 9182SOL     OW29552   8.495   3.438   6.237
 9182SOL    HW129553   8.554   3.481   6.175
 9182SOL    HW229554   8.411   3.435   6.191
 9183SOL     OW29555   3.706   3.662   6.325
 9183SOL    HW129556   3.619   3.699   6.314
 9183SOL    HW229557   3.691   3.575   6.362
 9184SOL     OW29558   9.249   7.162   5.852
 9184SOL    HW129559   9.278   7.251   5.830
 9184SOL    HW229560   9.317   7.105   5.816
 9185SOL     OW29561   4.566   4.809   6.859
 9185SOL    HW129562   4.603   4.845   6.778
 9185SOL    HW229563   4.610   4.856   6.929
 9186SOL     OW29564  11.048   0.374   5.300
 9186SOL    HW129565  11.117   0.319   5.338
 9186SOL    HW229566  11.093   0.427   5.235
 9187SOL     OW29567   3.734   2.784   0.304
 9187SOL    HW129568   3.685   2.706   0.278
 9187SOL    HW229569   3.713   2.849   0.237
 9188SOL     OW29570   9.927   6.255   7.153
 9188SOL    HW129571   9.952   6.307   7.229
 9188SOL    HW229572   9.832   6.262   7.150
 9189SOL     OW29573   3.795   0.008   6.114
 9189SOL    HW129574   3.719  -0.034   6.074
 9189SOL    HW229575   3.834  -0.060   6.169
 9190SOL     OW29576   2.929   2.800   9.451
 9190SOL    HW129577   3.002   2.845   9.408
 9190SOL    HW229578   2.863   2.867   9.464
 9191SOL     OW29579   0.403   0.609   3.811
 9191SOL    HW129580   0.369   0.553   3.880
 9191SOL    HW229581   0.424   0.691   3.854
 9192SOL     OW29582   1.020   2.977   6.856
 9192SOL    HW129583   0.993   3.018   6.938
 9192SOL    HW229584   1.102   2.933   6.877
 9193SOL     OW29585   5.713  10.458  10.469
 9193SOL    HW129586   5.745  10.380  10.514
 9193SOL    HW229587   5.777  10.472  10.399
 9194SOL     OW29588   5.875  11.015   2.318
 9194SOL    HW129589   5.925  10.957   2.261
 9194SOL    HW229590   5.801  10.962   2.348
 9195SOL     OW29591   2.098   8.871   6.379
 9195SOL    HW129592   2.152   8.907   6.449
 9195SOL    HW229593   2.146   8.892   6.298
 9196SOL     OW29594   4.072  10.535   6.098
 9196SOL    HW129595   4.083  10.517   6.191
 9196SOL    HW229596   4.005  10.603   6.094
 9197SOL     OW29597   1.640   9.227   6.992
 9197SOL    HW129598   1.709   9.163   7.010
 9197SOL    HW229599   1.564   9.195   7.041
 9198SOL     OW29600   9.061   4.124  10.946
 9198SOL    HW129601   9.149   4.125  10.909
 9198SOL    HW229602   9.033   4.215  10.945
 9199SOL     OW29603   6.998   4.352   4.525
 9199SOL    HW129604   6.965   4.263   4.537
 9199SOL    HW229605   7.051   4.369   4.603
 9200SOL     OW29606   7.152   7.566  10.331
 9200SOL    HW129607   7.242   7.536  10.317
 9200SOL    HW229608   7.160   7.659  10.349
 9201SOL     OW29609   0.923   1.284   0.932
 9201SOL    HW129610   0.893   1.323   0.850
 9201SOL    HW229611   0.857   1.310   0.996
 9202SOL     OW29612   0.340   4.438   8.613
 9202SOL    HW129613   0.318   4.347   8.636
 9202SOL    HW229614   0.313   4.489   8.689
 9203SOL     OW29615   0.689   3.056   2.445
 9203SOL    HW129616   0.656   2.987   2.503
 9203SOL    HW229617   0.610   3.099   2.412
 9204SOL     OW29618   4.005  10.609   5.208
 9204SOL    HW129619   3.939  10.671   5.238
 9204SOL    HW229620   4.073  10.664   5.167
 9205SOL     OW29621   7.375   7.763   3.863
 9205SOL    HW129622   7.309   7.695   3.847
 9205SOL    HW229623   7.377   7.814   3.782
 9206SOL     OW29624   0.830   2.964   3.558
 9206SOL    HW129625   0.753   2.914   3.532
 9206SOL    HW229626   0.901   2.928   3.505
 9207SOL     OW29627  10.621   2.872   8.163
 9207SOL    HW129628  10.613   2.871   8.258
 9207SOL    HW229629  10.609   2.964   8.139
 9208SOL     OW29630   4.840   8.468   1.325
 9208SOL    HW129631   4.860   8.486   1.417
 9208SOL    HW229632   4.751   8.434   1.326
 9209SOL     OW29633   7.707   6.067   2.365
 9209SOL    HW129634   7.726   6.131   2.433
 9209SOL    HW229635   7.776   6.080   2.300
 9210SOL     OW29636   3.643   6.404   2.328
 9210SOL    HW129637   3.592   6.330   2.362
 9210SOL    HW229638   3.582   6.477   2.328
 9211SOL     OW29639   2.186   1.451   6.576
 9211SOL    HW129640   2.213   1.441   6.667
 9211SOL    HW229641   2.268   1.465   6.528
 9212SOL     OW29642   8.550  10.994   6.087
 9212SOL    HW129643   8.637  10.990   6.046
 9212SOL    HW229644   8.490  10.972   6.016
 9213SOL     OW29645   6.953   9.173   8.690
 9213SOL    HW129646   6.995   9.244   8.642
 9213SOL    HW229647   6.963   9.097   8.633
 9214SOL     OW29648   1.099  10.780   4.416
 9214SOL    HW129649   1.147  10.861   4.433
 9214SOL    HW229650   1.064  10.791   4.327
 9215SOL     OW29651   5.094   8.958   8.913
 9215SOL    HW129652   5.023   9.015   8.885
 9215SOL    HW229653   5.054   8.871   8.918
 9216SOL     OW29654   7.769   3.603   0.019
 9216SOL    HW129655   7.766   3.643   0.106
 9216SOL    HW229656   7.680   3.573   0.003
 9217SOL     OW29657   6.673   3.500   0.786
 9217SOL    HW129658   6.758   3.543   0.796
 9217SOL    HW229659   6.693   3.416   0.744
 9218SOL     OW29660   9.943   3.447   5.801
 9218SOL    HW129661   9.906   3.414   5.883
 9218SOL    HW229662   9.937   3.542   5.809
 9219SOL     OW29663   2.348   9.746   2.377
 9219SOL    HW129664   2.408   9.716   2.445
 9219SOL    HW229665   2.261   9.721   2.409
 9220SOL     OW29666   1.426   7.441   4.572
 9220SOL    HW129667   1.347   7.393   4.548
 9220SOL    HW229668   1.417   7.457   4.666
 9221SOL     OW29669   0.910   3.210   1.086
 9221SOL    HW129670   0.852   3.284   1.070
 9221SOL    HW229671   0.983   3.223   1.025
 9222SOL     OW29672  10.132   2.423   7.883
 9222SOL    HW129673  10.204   2.449   7.941
 9222SOL    HW229674  10.068   2.382   7.941
 9223SOL     OW29675   4.992   0.780   0.319
 9223SOL    HW129676   4.980   0.857   0.374
 9223SOL    HW229677   4.921   0.785   0.255
 9224SOL     OW29678   1.655   0.107   7.175
 9224SOL    HW129679   1.588   0.140   7.235
 9224SOL    HW229680   1.664   0.175   7.109
 9225SOL     OW29681   1.405   8.067   8.709
 9225SOL    HW129682   1.397   8.122   8.631
 9225SOL    HW229683   1.434   7.982   8.675
 9226SOL     OW29684   2.508   3.460   5.987
 9226SOL    HW129685   2.471   3.393   6.045
 9226SOL    HW229686   2.460   3.449   5.904
 9227SOL     OW29687   5.681   9.724   1.914
 9227SOL    HW129688   5.596   9.766   1.921
 9227SOL    HW229689   5.718   9.759   1.833
 9228SOL     OW29690   6.229   1.053   6.567
 9228SOL    HW129691   6.193   1.134   6.532
 9228SOL    HW229692   6.153   1.004   6.599
 9229SOL     OW29693   2.690   0.706   2.890
 9229SOL    HW129694   2.663   0.706   2.981
 9229SOL    HW229695   2.752   0.633   2.883
 9230SOL     OW29696  10.662   9.834   8.299
 9230SOL    HW129697  10.686   9.772   8.368
 9230SOL    HW229698  10.567   9.826   8.292
 9231SOL     OW29699   0.806   7.860   5.005
 9231SOL    HW129700   0.720   7.819   5.006
 9231SOL    HW229701   0.803   7.920   4.930
 9232SOL     OW29702   2.059   3.749   3.269
 9232SOL    HW129703   2.083   3.678   3.208
 9232SOL    HW229704   2.142   3.792   3.290
 9233SOL     OW29705   7.097   1.541  10.427
 9233SOL    HW129706   7.110   1.541  10.332
 9233SOL    HW229707   7.089   1.448  10.450
 9234SOL     OW29708   3.421   6.507   5.796
 9234SOL    HW129709   3.504   6.459   5.795
 9234SOL    HW229710   3.424   6.559   5.876
 9235SOL     OW29711  10.406   2.808   7.376
 9235SOL    HW129712  10.429   2.738   7.437
 9235SOL    HW229713  10.320   2.837   7.404
 9236SOL     OW29714   3.956   0.423   2.929
 9236SOL    HW129715   3.898   0.348   2.913
 9236SOL    HW229716   3.977   0.418   3.022
 9237SOL     OW29717   6.453   0.962   1.763
 9237SOL    HW129718   6.437   0.992   1.673
 9237SOL    HW229719   6.503   1.033   1.803
 9238SOL     OW29720   6.167   7.287  10.662
 9238SOL    HW129721   6.209   7.321  10.741
 9238SOL    HW229722   6.174   7.192  10.670
 9239SOL     OW29723   7.619   2.154   5.680
 9239SOL    HW129724   7.576   2.138   5.596
 9239SOL    HW229725   7.698   2.203   5.657
 9240SOL     OW29726   6.881   5.940   4.557
 9240SOL    HW129727   6.950   5.881   4.527
 9240SOL    HW229728   6.915   6.028   4.539
 9241SOL     OW29729   1.136   9.830   1.911
 9241SOL    HW129730   1.215   9.787   1.944
 9241SOL    HW229731   1.142   9.818   1.816
 9242SOL     OW29732   9.333   1.750   4.657
 9242SOL    HW129733   9.368   1.670   4.696
 9242SOL    HW229734   9.280   1.719   4.583
 9243SOL     OW29735   0.165   3.370   0.445
 9243SOL    HW129736   0.112   3.327   0.512
 9243SOL    HW229737   0.180   3.302   0.379
 9244SOL     OW29738   4.675   3.846   5.652
 9244SOL    HW129739   4.607   3.805   5.705
 9244SOL    HW229740   4.705   3.920   5.704
 9245SOL     OW29741   9.465   7.031   0.378
 9245SOL    HW129742   9.517   7.036   0.298
 9245SOL    HW229743   9.505   6.960   0.428
 9246SOL     OW29744   7.070   9.152   4.209
 9246SOL    HW129745   7.016   9.156   4.130
 9246SOL    HW229746   7.050   9.067   4.248
 9247SOL     OW29747   2.491   0.795   9.942
 9247SOL    HW129748   2.548   0.859   9.900
 9247SOL    HW229749   2.408   0.841   9.955
 9248SOL     OW29750   9.706   6.010   0.160
 9248SOL    HW129751   9.669   6.090   0.123
 9248SOL    HW229752   9.797   6.010   0.131
 9249SOL     OW29753   8.880  10.291   5.701
 9249SOL    HW129754   8.794  10.319   5.730
 9249SOL    HW229755   8.937  10.366   5.718
 9250SOL     OW29756   0.369   6.621   5.116
 9250SOL    HW129757   0.324   6.541   5.144
 9250SOL    HW229758   0.429   6.641   5.187
 9251SOL     OW29759   4.205   2.099   5.352
 9251SOL    HW129760   4.139   2.112   5.419
 9251SOL    HW229761   4.281   2.148   5.382
 9252SOL     OW29762  11.084   5.438   9.832
 9252SOL    HW129763  11.069   5.431   9.737
 9252SOL    HW229764  11.062   5.528   9.853
 9253SOL     OW29765   1.372   8.453   3.326
 9253SOL    HW129766   1.356   8.445   3.232
 9253SOL    HW229767   1.369   8.547   3.343
 9254SOL     OW29768   3.389   9.660   4.427
 9254SOL    HW129769   3.373   9.712   4.505
 9254SOL    HW229770   3.352   9.712   4.356
 9255SOL     OW29771   1.013   2.168   2.989
 9255SOL    HW129772   0.936   2.132   3.033
 9255SOL    HW229773   1.085   2.155   3.051
 9256SOL     OW29774   1.847   3.021   2.794
 9256SOL    HW129775   1.867   2.978   2.877
 9256SOL    HW229776   1.793   2.957   2.747
 9257SOL     OW29777   1.179   9.073   4.699
 9257SOL    HW129778   1.233   9.012   4.648
 9257SOL    HW229779   1.217   9.159   4.682
 9258SOL     OW29780   0.674   8.347   8.467
 9258SOL    HW129781   0.700   8.255   8.462
 9258SOL    HW229782   0.590   8.346   8.512
 9259SOL     OW29783  10.191   3.422  10.701
 9259SOL    HW129784  10.221   3.367  10.628
 9259SOL    HW229785  10.162   3.503  10.659
 9260SOL     OW29786   9.144   8.699   6.263
 9260SOL    HW129787   9.093   8.666   6.189
 9260SOL    HW229788   9.176   8.784   6.234
 9261SOL     OW29789   2.544   3.198   8.362
 9261SOL    HW129790   2.625   3.147   8.369
 9261SOL    HW229791   2.479   3.135   8.332
 9262SOL     OW29792   9.671   9.705   9.571
 9262SOL    HW129793   9.641   9.715   9.480
 9262SOL    HW229794   9.591   9.697   9.622
 9263SOL     OW29795   9.502   2.181   3.538
 9263SOL    HW129796   9.491   2.272   3.510
 9263SOL    HW229797   9.537   2.187   3.626
 9264SOL     OW29798   2.866   9.936   4.544
 9264SOL    HW129799   2.809   9.980   4.481
 9264SOL    HW229800   2.862   9.843   4.518
 9265SOL     OW29801   3.744   3.698   9.944
 9265SOL    HW129802   3.662   3.665   9.907
 9265SOL    HW229803   3.795   3.619   9.963
 9266SOL     OW29804   0.515   1.898   4.864
 9266SOL    HW129805   0.570   1.833   4.908
 9266SOL    HW229806   0.426   1.874   4.888
 9267SOL     OW29807   5.086   2.945   7.762
 9267SOL    HW129808   5.093   3.040   7.767
 9267SOL    HW229809   5.055   2.918   7.848
 9268SOL     OW29810   0.008   4.728   6.424
 9268SOL    HW129811  -0.075   4.741   6.470
 9268SOL    HW229812  -0.004   4.646   6.375
 9269SOL     OW29813   7.186   7.009   8.972
 9269SOL    HW129814   7.170   6.978   8.882
 9269SOL    HW229815   7.201   6.929   9.022
 9270SOL     OW29816   3.607   0.127   6.842
 9270SOL    HW129817   3.605   0.046   6.893
 9270SOL    HW229818   3.655   0.189   6.896
 9271SOL     OW29819   8.983   3.878   4.335
 9271SOL    HW129820   8.985   3.967   4.301
 9271SOL    HW229821   8.951   3.887   4.424
 9272SOL     OW29822   2.326   4.813   4.378
 9272SOL    HW129823   2.351   4.851   4.462
 9272SOL    HW229824   2.284   4.885   4.331
 9273SOL     OW29825   9.767   5.726   5.183
 9273SOL    HW129826   9.840   5.671   5.152
 9273SOL    HW229827   9.689   5.686   5.145
 9274SOL     OW29828   3.865   9.744   1.788
 9274SOL    HW129829   3.821   9.699   1.715
 9274SOL    HW229830   3.956   9.751   1.760
 9275SOL     OW29831   4.580   2.065   9.145
 9275SOL    HW129832   4.519   2.041   9.215
 9275SOL    HW229833   4.666   2.063   9.186
 9276SOL     OW29834   0.364   2.335  10.463
 9276SOL    HW129835   0.453   2.334  10.497
 9276SOL    HW229836   0.372   2.304  10.373
 9277SOL     OW29837  11.095  10.606   2.437
 9277SOL    HW129838  11.026  10.541   2.426
 9277SOL    HW229839  11.075  10.673   2.372
 9278SOL     OW29840   9.461   1.447  10.615
 9278SOL    HW129841   9.550   1.413  10.603
 9278SOL    HW229842   9.414   1.416  10.537
 9279SOL     OW29843   1.602   2.061   6.002
 9279SOL    HW129844   1.580   2.041   6.093
 9279SOL    HW229845   1.666   1.994   5.977
 9280SOL     OW29846   5.173   2.811   5.156
 9280SOL    HW129847   5.236   2.862   5.207
 9280SOL    HW229848   5.184   2.721   5.187
 9281SOL     OW29849   0.884  10.365   5.531
 9281SOL    HW129850   0.835  10.440   5.564
 9281SOL    HW229851   0.861  10.293   5.590
 9282SOL     OW29852   7.992   4.857   2.888
 9282SOL    HW129853   7.998   4.952   2.896
 9282SOL    HW229854   8.082   4.826   2.898
 9283SOL     OW29855   3.322   8.754   3.822
 9283SOL    HW129856   3.274   8.717   3.896
 9283SOL    HW229857   3.284   8.711   3.745
 9284SOL     OW29858   5.311   3.467   1.748
 9284SOL    HW129859   5.254   3.391   1.734
 9284SOL    HW229860   5.304   3.486   1.841
 9285SOL     OW29861   5.770   1.453   1.378
 9285SOL    HW129862   5.708   1.508   1.330
 9285SOL    HW229863   5.738   1.363   1.365
 9286SOL     OW29864   6.329   7.424   1.869
 9286SOL    HW129865   6.275   7.423   1.948
 9286SOL    HW229866   6.267   7.436   1.797
 9287SOL     OW29867   9.595   3.634   9.825
 9287SOL    HW129868   9.598   3.616   9.919
 9287SOL    HW229869   9.661   3.702   9.811
 9288SOL     OW29870   7.316   2.193   3.466
 9288SOL    HW129871   7.368   2.153   3.396
 9288SOL    HW229872   7.347   2.283   3.470
 9289SOL     OW29873   1.383   4.707   2.671
 9289SOL    HW129874   1.404   4.632   2.727
 9289SOL    HW229875   1.349   4.667   2.591
 9290SOL     OW29876   6.133   9.692   0.755
 9290SOL    HW129877   6.073   9.619   0.736
 9290SOL    HW229878   6.220   9.653   0.747
 9291SOL     OW29879   3.877   7.307   8.589
 9291SOL    HW129880   3.946   7.251   8.625
 9291SOL    HW229881   3.826   7.248   8.533
 9292SOL     OW29882   5.617   6.915   2.133
 9292SOL    HW129883   5.677   6.939   2.203
 9292SOL    HW229884   5.555   6.988   2.127
 9293SOL     OW29885   0.769  11.057   0.743
 9293SOL    HW129886   0.746  11.150   0.734
 9293SOL    HW229887   0.815  11.052   0.827
 9294SOL     OW29888   5.428   2.478   4.818
 9294SOL    HW129889   5.484   2.532   4.873
 9294SOL    HW229890   5.347   2.469   4.867
 9295SOL     OW29891   4.358   4.625   6.618
 9295SOL    HW129892   4.296   4.616   6.546
 9295SOL    HW229893   4.417   4.550   6.608
 9296SOL     OW29894   5.295   4.342   6.200
 9296SOL    HW129895   5.375   4.363   6.248
 9296SOL    HW229896   5.226   4.344   6.266
 9297SOL     OW29897   6.628  10.506   4.243
 9297SOL    HW129898   6.533  10.516   4.249
 9297SOL    HW229899   6.659  10.589   4.207
 9298SOL     OW29900   4.076   9.322  10.888
 9298SOL    HW129901   4.081   9.352  10.797
 9298SOL    HW229902   4.086   9.227  10.881
 9299SOL     OW29903   0.579   0.999   7.651
 9299SOL    HW129904   0.540   0.928   7.599
 9299SOL    HW229905   0.539   1.078   7.616
 9300SOL     OW29906   4.516  10.491  10.128
 9300SOL    HW129907   4.604  10.501  10.090
 9300SOL    HW229908   4.478  10.417  10.081
 9301SOL     OW29909   7.538   8.175   1.254
 9301SOL    HW129910   7.614   8.213   1.298
 9301SOL    HW229911   7.481   8.249   1.236
 9302SOL     OW29912   7.325  10.433   4.034
 9302SOL    HW129913   7.395  10.388   3.987
 9302SOL    HW229914   7.245  10.392   4.001
 9303SOL     OW29915   3.750   6.059   9.160
 9303SOL    HW129916   3.782   6.117   9.228
 9303SOL    HW229917   3.693   6.114   9.106
 9304SOL     OW29918   4.724   6.446   4.623
 9304SOL    HW129919   4.668   6.370   4.639
 9304SOL    HW229920   4.813   6.411   4.623
 9305SOL     OW29921  10.213   2.128   8.343
 9305SOL    HW129922  10.298   2.089   8.321
 9305SOL    HW229923  10.158   2.053   8.368
 9306SOL     OW29924   0.255   7.947   1.884
 9306SOL    HW129925   0.349   7.946   1.868
 9306SOL    HW229926   0.238   8.034   1.920
 9307SOL     OW29927   8.580   6.859   2.272
 9307SOL    HW129928   8.589   6.779   2.219
 9307SOL    HW229929   8.656   6.858   2.330
 9308SOL     OW29930   5.792   1.332   1.024
 9308SOL    HW129931   5.833   1.249   1.050
 9308SOL    HW229932   5.714   1.305   0.975
 9309SOL     OW29933   9.509   4.515   5.842
 9309SOL    HW129934   9.483   4.437   5.791
 9309SOL    HW229935   9.457   4.510   5.922
 9310SOL     OW29936   3.166   4.651   4.117
 9310SOL    HW129937   3.147   4.679   4.206
 9310SOL    HW229938   3.174   4.555   4.123
 9311SOL     OW29939   2.042  10.426   8.672
 9311SOL    HW129940   2.002  10.417   8.585
 9311SOL    HW229941   2.126  10.381   8.664
 9312SOL     OW29942   7.236   6.068   7.858
 9312SOL    HW129943   7.311   6.042   7.911
 9312SOL    HW229944   7.175   6.107   7.920
 9313SOL     OW29945  10.497   0.505   3.725
 9313SOL    HW129946  10.416   0.530   3.681
 9313SOL    HW229947  10.565   0.521   3.660
 9314SOL     OW29948   2.040   4.381   5.339
 9314SOL    HW129949   2.112   4.408   5.282
 9314SOL    HW229950   2.053   4.287   5.350
 9315SOL     OW29951   7.621   3.026   6.547
 9315SOL    HW129952   7.562   2.953   6.529
 9315SOL    HW229953   7.673   2.997   6.622
 9316SOL     OW29954   4.341   0.304   4.035
 9316SOL    HW129955   4.309   0.318   4.124
 9316SOL    HW229956   4.269   0.333   3.979
 9317SOL     OW29957   2.561   5.373   6.154
 9317SOL    HW129958   2.494   5.428   6.194
 9317SOL    HW229959   2.642   5.399   6.197
 9318SOL     OW29960   9.888  10.287   6.313
 9318SOL    HW129961   9.813  10.324   6.359
 9318SOL    HW229962   9.917  10.214   6.368
 9319SOL     OW29963   1.274  10.995   5.742
 9319SOL    HW129964   1.238  10.943   5.670
 9319SOL    HW229965   1.365  10.966   5.749
 9320SOL     OW29966   4.168   7.075   2.814
 9320SOL    HW129967   4.130   7.161   2.797
 9320SOL    HW229968   4.162   7.029   2.730
 9321SOL     OW29969   2.124  10.957   2.322
 9321SOL    HW129970   2.086  10.961   2.410
 9321SOL    HW229971   2.140  11.048   2.298
 9322SOL     OW29972   6.804   1.323   2.514
 9322SOL    HW129973   6.847   1.254   2.463
 9322SOL    HW229974   6.845   1.404   2.484
 9323SOL     OW29975   9.452   1.998   4.655
 9323SOL    HW129976   9.522   1.982   4.591
 9323SOL    HW229977   9.397   1.919   4.651
 9324SOL     OW29978   3.807   2.199   8.188
 9324SOL    HW129979   3.726   2.248   8.199
 9324SOL    HW229980   3.829   2.168   8.276
 9325SOL     OW29981   4.743  10.353   2.330
 9325SOL    HW129982   4.653  10.342   2.361
 9325SOL    HW229983   4.749  10.296   2.253
 9326SOL     OW29984  10.034   3.640   0.143
 9326SOL    HW129985  10.125   3.633   0.114
 9326SOL    HW229986  10.039   3.692   0.224
 9327SOL     OW29987   7.849  10.482   2.189
 9327SOL    HW129988   7.830  10.575   2.202
 9327SOL    HW229989   7.897  10.479   2.106
 9328SOL     OW29990   0.415  11.104   4.828
 9328SOL    HW129991   0.328  11.065   4.821
 9328SOL    HW229992   0.468  11.037   4.870
 9329SOL     OW29993   4.561   8.658   7.331
 9329SOL    HW129994   4.568   8.669   7.236
 9329SOL    HW229995   4.594   8.740   7.367
 9330SOL     OW29996   6.836   1.319   4.380
 9330SOL    HW129997   6.860   1.319   4.472
 9330SOL    HW229998   6.823   1.226   4.359
 9331SOL     OW29999   9.739   2.550   3.553
 9331SOL    HW130000   9.722   2.496   3.630
 9331SOL    HW230001   9.678   2.517   3.487
 9332SOL     OW30002   6.156   2.119  10.726
 9332SOL    HW130003   6.083   2.083  10.675
 9332SOL    HW230004   6.146   2.080  10.812
 9333SOL     OW30005   8.863   6.122   6.135
 9333SOL    HW130006   8.878   6.216   6.135
 9333SOL    HW230007   8.768   6.112   6.128
 9334SOL     OW30008   4.365   3.022   4.733
 9334SOL    HW130009   4.443   3.064   4.768
 9334SOL    HW230010   4.315   3.093   4.693
 9335SOL     OW30011   4.911  10.217   3.865
 9335SOL    HW130012   4.825  10.184   3.839
 9335SOL    HW230013   4.926  10.293   3.809
 9336SOL     OW30014   8.900   5.941   4.384
 9336SOL    HW130015   8.895   5.858   4.431
 9336SOL    HW230016   8.858   6.004   4.442
 9337SOL     OW30017   7.337   3.233  10.046
 9337SOL    HW130018   7.374   3.286   9.975
 9337SOL    HW230019   7.247   3.264  10.055
 9338SOL     OW30020   2.479   8.444   0.348
 9338SOL    HW130021   2.544   8.429   0.279
 9338SOL    HW230022   2.424   8.365   0.347
 9339SOL     OW30023   6.217   1.666   9.675
 9339SOL    HW130024   6.156   1.643   9.604
 9339SOL    HW230025   6.292   1.706   9.630
 9340SOL     OW30026   3.317   2.983   2.257
 9340SOL    HW130027   3.307   3.078   2.260
 9340SOL    HW230028   3.375   2.967   2.182
 9341SOL     OW30029   3.775   4.830   6.945
 9341SOL    HW130030   3.755   4.837   6.851
 9341SOL    HW230031   3.859   4.784   6.948
 9342SOL     OW30032   0.061   1.625   8.385
 9342SOL    HW130033   0.044   1.645   8.477
 9342SOL    HW230034  -0.026   1.624   8.344
 9343SOL     OW30035   0.963   7.635   5.019
 9343SOL    HW130036   1.036   7.668   4.967
 9343SOL    HW230037   0.916   7.713   5.047
 9344SOL     OW30038  10.457   7.647   6.069
 9344SOL    HW130039  10.444   7.636   5.975
 9344SOL    HW230040  10.449   7.558   6.104
 9345SOL     OW30041   5.217   3.511   4.627
 9345SOL    HW130042   5.268   3.459   4.689
 9345SOL    HW230043   5.128   3.508   4.661
 9346SOL     OW30044   4.937   9.138   8.311
 9346SOL    HW130045   4.887   9.202   8.362
 9346SOL    HW230046   5.004   9.106   8.371
 9347SOL     OW30047   1.767   8.294   7.717
 9347SOL    HW130048   1.830   8.258   7.654
 9347SOL    HW230049   1.812   8.368   7.757
 9348SOL     OW30050   7.197   8.701  10.885
 9348SOL    HW130051   7.280   8.710  10.932
 9348SOL    HW230052   7.219   8.722  10.794
 9349SOL     OW30053   1.355   5.001   4.713
 9349SOL    HW130054   1.418   4.944   4.668
 9349SOL    HW230055   1.304   5.041   4.642
 9350SOL     OW30056   7.540   2.263   0.305
 9350SOL    HW130057   7.581   2.207   0.371
 9350SOL    HW230058   7.610   2.322   0.276
 9351SOL     OW30059   5.805  10.664   1.355
 9351SOL    HW130060   5.892  10.689   1.385
 9351SOL    HW230061   5.819  10.634   1.265
 9352SOL     OW30062   8.286   5.336   1.545
 9352SOL    HW130063   8.230   5.258   1.541
 9352SOL    HW230064   8.232   5.407   1.510
 9353SOL     OW30065   1.488   5.471   5.798
 9353SOL    HW130066   1.463   5.455   5.707
 9353SOL    HW230067   1.420   5.427   5.849
 9354SOL     OW30068   7.557   8.242   3.160
 9354SOL    HW130069   7.523   8.152   3.160
 9354SOL    HW230070   7.642   8.235   3.203
 9355SOL     OW30071   9.023   3.431   8.497
 9355SOL    HW130072   9.018   3.470   8.584
 9355SOL    HW230073   8.938   3.390   8.484
 9356SOL     OW30074   9.797   1.334   1.416
 9356SOL    HW130075   9.758   1.392   1.480
 9356SOL    HW230076   9.891   1.350   1.422
 9357SOL     OW30077   9.353   4.066   8.734
 9357SOL    HW130078   9.397   4.017   8.803
 9357SOL    HW230079   9.262   4.072   8.763
 9358SOL     OW30080   1.274   1.737   7.507
 9358SOL    HW130081   1.210   1.798   7.544
 9358SOL    HW230082   1.359   1.776   7.526
 9359SOL     OW30083   4.852   1.711   6.073
 9359SOL    HW130084   4.838   1.644   6.005
 9359SOL    HW230085   4.827   1.793   6.031
 9360SOL     OW30086   1.138  10.435   4.535
 9360SOL    HW130087   1.175  10.386   4.608
 9360SOL    HW230088   1.188  10.517   4.533
 9361SOL     OW30089   9.758   4.649   8.526
 9361SOL    HW130090   9.762   4.587   8.452
 9361SOL    HW230091   9.817   4.720   8.501
 9362SOL     OW30092   9.604   2.409  10.163
 9362SOL    HW130093   9.690   2.368  10.170
 9362SOL    HW230094   9.544   2.335  10.152
 9363SOL     OW30095   7.041  10.916   6.661
 9363SOL    HW130096   7.051  10.936   6.754
 9363SOL    HW230097   7.071  10.995   6.616
 9364SOL     OW30098   5.199  10.846   9.709
 9364SOL    HW130099   5.212  10.940   9.694
 9364SOL    HW230100   5.178  10.839   9.802
 9365SOL     OW30101   6.536   3.790   0.191
 9365SOL    HW130102   6.612   3.818   0.140
 9365SOL    HW230103   6.493   3.724   0.136
 9366SOL     OW30104   4.319   1.361   5.454
 9366SOL    HW130105   4.261   1.284   5.449
 9366SOL    HW230106   4.277   1.419   5.517
 9367SOL     OW30107   8.379   2.736   1.056
 9367SOL    HW130108   8.370   2.828   1.078
 9367SOL    HW230109   8.449   2.734   0.990
 9368SOL     OW30110   0.052   4.182   5.035
 9368SOL    HW130111   0.072   4.167   4.942
 9368SOL    HW230112   0.034   4.276   5.041
 9369SOL     OW30113   0.602   5.689   3.884
 9369SOL    HW130114   0.644   5.630   3.947
 9369SOL    HW230115   0.657   5.684   3.806
 9370SOL     OW30116   1.287   5.712   4.293
 9370SOL    HW130117   1.351   5.733   4.225
 9370SOL    HW230118   1.246   5.796   4.314
 9371SOL     OW30119   0.740   3.097   5.997
 9371SOL    HW130120   0.736   3.036   6.070
 9371SOL    HW230121   0.814   3.154   6.017
 9372SOL     OW30122   4.284   9.508   7.589
 9372SOL    HW130123   4.216   9.560   7.546
 9372SOL    HW230124   4.240   9.466   7.663
 9373SOL     OW30125   0.788  11.085   8.451
 9373SOL    HW130126   0.739  11.017   8.405
 9373SOL    HW230127   0.792  11.157   8.388
 9374SOL     OW30128   2.084   9.453   7.876
 9374SOL    HW130129   2.082   9.403   7.794
 9374SOL    HW230130   2.164   9.424   7.920
 9375SOL     OW30131   9.684   2.591   0.246
 9375SOL    HW130132   9.662   2.510   0.292
 9375SOL    HW230133   9.723   2.561   0.164
 9376SOL     OW30134   4.798   5.972   3.077
 9376SOL    HW130135   4.883   5.997   3.114
 9376SOL    HW230136   4.741   6.047   3.094
 9377SOL     OW30137   5.398   6.855   6.273
 9377SOL    HW130138   5.473   6.816   6.227
 9377SOL    HW230139   5.389   6.942   6.235
 9378SOL     OW30140   4.963   1.846   3.044
 9378SOL    HW130141   4.903   1.838   3.118
 9378SOL    HW230142   5.042   1.798   3.071
 9379SOL     OW30143   9.570   7.966   3.880
 9379SOL    HW130144   9.650   7.971   3.827
 9379SOL    HW230145   9.579   8.037   3.943
 9380SOL     OW30146   9.690  10.525  10.552
 9380SOL    HW130147   9.646  10.508  10.635
 9380SOL    HW230148   9.758  10.458  10.546
 9381SOL     OW30149   3.279   1.882   7.894
 9381SOL    HW130150   3.358   1.849   7.937
 9381SOL    HW230151   3.224   1.804   7.883
 9382SOL     OW30152   7.754   3.575  10.618
 9382SOL    HW130153   7.801   3.650  10.653
 9382SOL    HW230154   7.693   3.612  10.554
 9383SOL     OW30155   5.601   4.148   7.959
 9383SOL    HW130156   5.619   4.223   7.903
 9383SOL    HW230157   5.599   4.183   8.047
 9384SOL     OW30158  10.223   2.325   1.590
 9384SOL    HW130159  10.244   2.408   1.548
 9384SOL    HW230160  10.160   2.347   1.658
 9385SOL     OW30161   2.264   2.950   7.923
 9385SOL    HW130162   2.215   2.869   7.909
 9385SOL    HW230163   2.217   3.015   7.872
 9386SOL     OW30164   7.977   9.284   2.564
 9386SOL    HW130165   7.971   9.366   2.516
 9386SOL    HW230166   7.886   9.259   2.580
 9387SOL     OW30167   9.528   4.425   8.367
 9387SOL    HW130168   9.613   4.459   8.341
 9387SOL    HW230169   9.547   4.339   8.404
 9388SOL     OW30170   4.000   5.816   7.931
 9388SOL    HW130171   4.062   5.880   7.897
 9388SOL    HW230172   4.055   5.747   7.968
 9389SOL     OW30173   2.832   1.034   4.774
 9389SOL    HW130174   2.914   1.003   4.735
 9389SOL    HW230175   2.840   1.129   4.773
 9390SOL     OW30176  10.369   8.563   3.800
 9390SOL    HW130177  10.341   8.554   3.891
 9390SOL    HW230178  10.301   8.616   3.759
 9391SOL     OW30179   6.892   7.908   8.466
 9391SOL    HW130180   6.822   7.939   8.523
 9391SOL    HW230181   6.862   7.822   8.435
 9392SOL     OW30182   5.216  10.342   2.675
 9392SOL    HW130183   5.228  10.247   2.671
 9392SOL    HW230184   5.297  10.374   2.715
 9393SOL     OW30185  10.710   0.442   8.813
 9393SOL    HW130186  10.645   0.478   8.873
 9393SOL    HW230187  10.703   0.347   8.824
 9394SOL     OW30188  10.739   5.003   7.874
 9394SOL    HW130189  10.827   5.029   7.900
 9394SOL    HW230190  10.706   5.077   7.823
 9395SOL     OW30191   8.737   9.044   3.640
 9395SOL    HW130192   8.780   8.963   3.668
 9395SOL    HW230193   8.682   9.017   3.566
 9396SOL     OW30194   1.118   9.744   3.900
 9396SOL    HW130195   1.074   9.784   3.975
 9396SOL    HW230196   1.139   9.817   3.842
 9397SOL     OW30197   9.428   1.158   5.018
 9397SOL    HW130198   9.343   1.116   5.004
 9397SOL    HW230199   9.492   1.089   4.999
 9398SOL     OW30200   8.072  11.049   5.620
 9398SOL    HW130201   8.120  11.018   5.543
 9398SOL    HW230202   7.990  11.001   5.617
 9399SOL     OW30203   1.559   4.978   5.365
 9399SOL    HW130204   1.639   5.014   5.328
 9399SOL    HW230205   1.586   4.895   5.404
 9400SOL     OW30206   4.605   8.299   1.937
 9400SOL    HW130207   4.526   8.305   1.990
 9400SOL    HW230208   4.589   8.225   1.878
 9401SOL     OW30209   0.699   9.169   0.654
 9401SOL    HW130210   0.745   9.151   0.736
 9401SOL    HW230211   0.687   9.083   0.614
 9402SOL     OW30212   6.963  10.627   7.360
 9402SOL    HW130213   6.955  10.557   7.424
 9402SOL    HW230214   6.873  10.646   7.334
 9403SOL     OW30215   0.668   4.199   3.780
 9403SOL    HW130216   0.578   4.214   3.808
 9403SOL    HW230217   0.710   4.285   3.784
 9404SOL     OW30218   7.437   1.296   5.103
 9404SOL    HW130219   7.412   1.349   5.027
 9404SOL    HW230220   7.372   1.226   5.106
 9405SOL     OW30221   8.401   7.112   4.729
 9405SOL    HW130222   8.465   7.120   4.800
 9405SOL    HW230223   8.325   7.071   4.769
 9406SOL     OW30224   0.918   1.284   7.090
 9406SOL    HW130225   0.933   1.374   7.116
 9406SOL    HW230226   0.942   1.232   7.166
 9407SOL     OW30227   0.284   4.120   7.654
 9407SOL    HW130228   0.279   4.024   7.647
 9407SOL    HW230229   0.377   4.139   7.656
 9408SOL     OW30230   1.036   2.667   9.442
 9408SOL    HW130231   1.130   2.676   9.424
 9408SOL    HW230232   1.031   2.659   9.537
 9409SOL     OW30233   2.419   1.731   6.700
 9409SOL    HW130234   2.421   1.656   6.639
 9409SOL    HW230235   2.326   1.746   6.717
 9410SOL     OW30236   2.965   0.205   8.863
 9410SOL    HW130237   3.046   0.190   8.814
 9410SOL    HW230238   2.948   0.298   8.853
 9411SOL     OW30239  10.365   1.782   1.359
 9411SOL    HW130240  10.425   1.809   1.289
 9411SOL    HW230241  10.399   1.825   1.437
 9412SOL     OW30242   7.436   6.991   1.194
 9412SOL    HW130243   7.524   7.026   1.206
 9412SOL    HW230244   7.449   6.896   1.186
 9413SOL     OW30245   1.365   8.051   2.700
 9413SOL    HW130246   1.406   8.089   2.622
 9413SOL    HW230247   1.429   8.063   2.770
 9414SOL     OW30248   4.194   9.989   7.301
 9414SOL    HW130249   4.203   9.983   7.396
 9414SOL    HW230250   4.134   9.917   7.278
 9415SOL     OW30251   0.701   1.087   4.509
 9415SOL    HW130252   0.730   1.135   4.431
 9415SOL    HW230253   0.781   1.076   4.561
 9416SOL     OW30254   0.035   5.187   2.310
 9416SOL    HW130255  -0.054   5.218   2.329
 9416SOL    HW230256   0.077   5.261   2.266
 9417SOL     OW30257   4.512   0.824   4.303
 9417SOL    HW130258   4.445   0.757   4.317
 9417SOL    HW230259   4.580   0.804   4.367
 9418SOL     OW30260   9.843   6.274   6.253
 9418SOL    HW130261   9.810   6.363   6.239
 9418SOL    HW230262   9.809   6.248   6.339
 9419SOL     OW30263   9.972   2.346   5.877
 9419SOL    HW130264   9.940   2.268   5.922
 9419SOL    HW230265   9.954   2.328   5.784
 9420SOL     OW30266   7.212   3.498   9.617
 9420SOL    HW130267   7.276   3.469   9.551
 9420SOL    HW230268   7.136   3.440   9.603
 9421SOL     OW30269   0.576   5.880   2.078
 9421SOL    HW130270   0.659   5.926   2.090
 9421SOL    HW230271   0.557   5.888   1.984
 9422SOL     OW30272   0.596   4.240   7.658
 9422SOL    HW130273   0.580   4.145   7.660
 9422SOL    HW230274   0.652   4.253   7.581
 9423SOL     OW30275   7.551   6.557   2.976
 9423SOL    HW130276   7.486   6.487   2.970
 9423SOL    HW230277   7.522   6.622   2.912
 9424SOL     OW30278   2.381   9.827   6.911
 9424SOL    HW130279   2.383   9.800   6.819
 9424SOL    HW230280   2.293   9.863   6.923
 9425SOL     OW30281   8.891   0.510   2.237
 9425SOL    HW130282   8.940   0.438   2.195
 9425SOL    HW230283   8.942   0.531   2.315
 9426SOL     OW30284   7.669   9.176   9.823
 9426SOL    HW130285   7.673   9.239   9.894
 9426SOL    HW230286   7.577   9.152   9.817
 9427SOL     OW30287   1.246   3.886   5.686
 9427SOL    HW130288   1.185   3.959   5.687
 9427SOL    HW230289   1.316   3.912   5.746
 9428SOL     OW30290   0.876   8.837   2.922
 9428SOL    HW130291   0.812   8.899   2.956
 9428SOL    HW230292   0.826   8.756   2.909
 9429SOL     OW30293   5.320   9.704   4.945
 9429SOL    HW130294   5.317   9.799   4.952
 9429SOL    HW230295   5.375   9.676   5.018
 9430SOL     OW30296   3.372   4.590  10.959
 9430SOL    HW130297   3.417   4.524  10.905
 9430SOL    HW230298   3.341   4.541  11.035
 9431SOL     OW30299   9.082   0.750  10.280
 9431SOL    HW130300   9.115   0.812  10.345
 9431SOL    HW230301   9.123   0.666  10.303
 9432SOL     OW30302   6.591   0.330   0.662
 9432SOL    HW130303   6.525   0.279   0.708
 9432SOL    HW230304   6.634   0.266   0.604
 9433SOL     OW30305   2.225   9.166   0.025
 9433SOL    HW130306   2.168   9.097   0.060
 9433SOL    HW230307   2.212   9.163  -0.069
 9434SOL     OW30308   8.719   1.463   5.945
 9434SOL    HW130309   8.795   1.476   5.888
 9434SOL    HW230310   8.728   1.373   5.976
 9435SOL     OW30311   2.141   2.878   5.971
 9435SOL    HW130312   2.184   2.793   5.983
 9435SOL    HW230313   2.170   2.907   5.884
 9436SOL     OW30314   8.365   2.029   6.936
 9436SOL    HW130315   8.419   2.101   6.968
 9436SOL    HW230316   8.353   2.048   6.843
 9437SOL     OW30317  10.327   2.898   2.041
 9437SOL    HW130318  10.370   2.880   1.957
 9437SOL    HW230319  10.284   2.815   2.063
 9438SOL     OW30320   7.588  10.970   1.784
 9438SOL    HW130321   7.601  11.016   1.867
 9438SOL    HW230322   7.531  11.028   1.733
 9439SOL     OW30323   3.988   6.852   9.728
 9439SOL    HW130324   3.999   6.906   9.649
 9439SOL    HW230325   3.947   6.910   9.792
 9440SOL     OW30326   3.761   2.259  10.565
 9440SOL    HW130327   3.765   2.184  10.505
 9440SOL    HW230328   3.680   2.303  10.542
 9441SOL     OW30329   2.979   3.987   7.550
 9441SOL    HW130330   3.035   3.914   7.522
 9441SOL    HW230331   3.040   4.049   7.590
 9442SOL     OW30332   1.557  10.462   5.108
 9442SOL    HW130333   1.527  10.525   5.173
 9442SOL    HW230334   1.489  10.463   5.040
 9443SOL     OW30335   6.016   3.637   7.191
 9443SOL    HW130336   6.044   3.661   7.279
 9443SOL    HW230337   5.921   3.632   7.196
 9444SOL     OW30338  10.036   7.748   7.280
 9444SOL    HW130339   9.983   7.729   7.202
 9444SOL    HW230340  10.045   7.843   7.280
 9445SOL     OW30341  11.037   9.008   6.339
 9445SOL    HW130342  10.972   9.060   6.291
 9445SOL    HW230343  11.083   8.959   6.270
 9446SOL     OW30344   6.687   2.797   7.999
 9446SOL    HW130345   6.693   2.702   7.984
 9446SOL    HW230346   6.744   2.813   8.074
 9447SOL     OW30347   8.898   4.750   2.515
 9447SOL    HW130348   8.909   4.834   2.471
 9447SOL    HW230349   8.879   4.772   2.606
 9448SOL     OW30350   9.847   6.217   5.604
 9448SOL    HW130351   9.794   6.252   5.532
 9448SOL    HW230352   9.938   6.225   5.573
 9449SOL     OW30353  10.962   7.864   7.008
 9449SOL    HW130354  11.014   7.855   7.088
 9449SOL    HW230355  10.953   7.958   6.995
 9450SOL     OW30356   1.918   3.439  11.014
 9450SOL    HW130357   1.993   3.491  10.985
 9450SOL    HW230358   1.957   3.359  11.050
 9451SOL     OW30359   3.019  10.436   6.935
 9451SOL    HW130360   3.013  10.509   6.996
 9451SOL    HW230361   3.095  10.456   6.881
 9452SOL     OW30362   2.126   4.983   0.766
 9452SOL    HW130363   2.169   5.059   0.804
 9452SOL    HW230364   2.082   5.016   0.688
 9453SOL     OW30365   0.678   0.458   1.635
 9453SOL    HW130366   0.753   0.495   1.588
 9453SOL    HW230367   0.626   0.534   1.661
 9454SOL     OW30368  11.075   1.273   9.308
 9454SOL    HW130369  11.097   1.365   9.322
 9454SOL    HW230370  11.144   1.224   9.353
 9455SOL     OW30371   0.678   9.104   2.406
 9455SOL    HW130372   0.731   9.025   2.391
 9455SOL    HW230373   0.640   9.124   2.320
 9456SOL     OW30374   1.523  10.712   8.378
 9456SOL    HW130375   1.449  10.772   8.382
 9456SOL    HW230376   1.594  10.765   8.341
 9457SOL     OW30377   5.847   6.718   2.070
 9457SOL    HW130378   5.906   6.682   2.136
 9457SOL    HW230379   5.788   6.775   2.118
 9458SOL     OW30380   4.208   3.608   4.379
 9458SOL    HW130381   4.284   3.659   4.407
 9458SOL    HW230382   4.151   3.671   4.336
 9459SOL     OW30383   4.743   0.283   7.789
 9459SOL    HW130384   4.652   0.308   7.774
 9459SOL    HW230385   4.793   0.335   7.726
 9460SOL     OW30386   2.965   1.596   4.469
 9460SOL    HW130387   3.005   1.536   4.406
 9460SOL    HW230388   2.994   1.683   4.441
 9461SOL     OW30389   4.780  10.990   8.982
 9461SOL    HW130390   4.712  11.056   8.972
 9461SOL    HW230391   4.752  10.937   9.056
 9462SOL     OW30392   3.151   0.337   2.216
 9462SOL    HW130393   3.162   0.386   2.297
 9462SOL    HW230394   3.139   0.246   2.244
 9463SOL     OW30395   3.282   3.375   6.708
 9463SOL    HW130396   3.238   3.459   6.699
 9463SOL    HW230397   3.249   3.339   6.790
 9464SOL     OW30398   2.728   3.860   7.499
 9464SOL    HW130399   2.745   3.792   7.564
 9464SOL    HW230400   2.797   3.925   7.513
 9465SOL     OW30401  11.025   9.229   1.699
 9465SOL    HW130402  11.006   9.293   1.630
 9465SOL    HW230403  11.118   9.242   1.719
 9466SOL     OW30404   9.961   0.958   5.905
 9466SOL    HW130405  10.034   0.995   5.955
 9466SOL    HW230406   9.899   1.030   5.895
 9467SOL     OW30407   2.480   6.789   6.584
 9467SOL    HW130408   2.476   6.752   6.495
 9467SOL    HW230409   2.408   6.747   6.630
 9468SOL     OW30410   7.651   9.026   8.558
 9468SOL    HW130411   7.724   8.965   8.544
 9468SOL    HW230412   7.573   8.973   8.544
 9469SOL     OW30413   9.888   9.950   5.306
 9469SOL    HW130414   9.813   9.893   5.323
 9469SOL    HW230415   9.887  10.014   5.377
 9470SOL     OW30416   3.161   0.106   8.068
 9470SOL    HW130417   3.201   0.030   8.026
 9470SOL    HW230418   3.216   0.180   8.042
 9471SOL     OW30419   0.854   0.632   6.760
 9471SOL    HW130420   0.776   0.685   6.746
 9471SOL    HW230421   0.925   0.682   6.719
 9472SOL     OW30422  10.904   2.229   4.849
 9472SOL    HW130423  10.959   2.230   4.770
 9472SOL    HW230424  10.923   2.312   4.893
 9473SOL     OW30425  10.715   2.703  10.228
 9473SOL    HW130426  10.797   2.745  10.201
 9473SOL    HW230427  10.658   2.710  10.151
 9474SOL     OW30428  10.634   4.635   6.466
 9474SOL    HW130429  10.575   4.704   6.495
 9474SOL    HW230430  10.647   4.652   6.372
 9475SOL     OW30431   8.186   0.598   6.357
 9475SOL    HW130432   8.197   0.503   6.344
 9475SOL    HW230433   8.149   0.629   6.274
 9476SOL     OW30434   7.169   4.247   9.318
 9476SOL    HW130435   7.205   4.319   9.369
 9476SOL    HW230436   7.085   4.228   9.359
 9477SOL     OW30437  10.885   4.427   1.355
 9477SOL    HW130438  10.808   4.412   1.300
 9477SOL    HW230439  10.898   4.344   1.401
 9478SOL     OW30440   8.587   4.585  10.664
 9478SOL    HW130441   8.544   4.666  10.638
 9478SOL    HW230442   8.529   4.516  10.632
 9479SOL     OW30443   9.948  10.065   7.767
 9479SOL    HW130444  10.038  10.097   7.757
 9479SOL    HW230445   9.895  10.125   7.714
 9480SOL     OW30446   4.526   2.419   6.258
 9480SOL    HW130447   4.572   2.481   6.202
 9480SOL    HW230448   4.584   2.407   6.333
 9481SOL     OW30449   3.953  10.258   2.223
 9481SOL    HW130450   3.950  10.338   2.171
 9481SOL    HW230451   3.871  10.258   2.272
 9482SOL     OW30452   7.076   7.523   9.886
 9482SOL    HW130453   6.994   7.570   9.873
 9482SOL    HW230454   7.054   7.452   9.946
 9483SOL     OW30455   1.438   4.074   1.703
 9483SOL    HW130456   1.500   4.052   1.772
 9483SOL    HW230457   1.400   3.990   1.677
 9484SOL     OW30458  10.070   5.048   8.389
 9484SOL    HW130459  10.081   5.117   8.324
 9484SOL    HW230460  10.115   5.080   8.467
 9485SOL     OW30461   7.792   0.127   8.923
 9485SOL    HW130462   7.791   0.084   9.008
 9485SOL    HW230463   7.700   0.131   8.897
 9486SOL     OW30464   9.817   1.236   3.579
 9486SOL    HW130465   9.811   1.141   3.566
 9486SOL    HW230466   9.745   1.272   3.527
 9487SOL     OW30467   4.488   0.612   5.895
 9487SOL    HW130468   4.451   0.667   5.826
 9487SOL    HW230469   4.576   0.647   5.908
 9488SOL     OW30470   1.261   0.443   4.569
 9488SOL    HW130471   1.181   0.438   4.620
 9488SOL    HW230472   1.232   0.434   4.478
 9489SOL     OW30473   0.913   6.752   3.527
 9489SOL    HW130474   0.983   6.694   3.558
 9489SOL    HW230475   0.851   6.693   3.484
 9490SOL     OW30476   8.052   1.705   2.397
 9490SOL    HW130477   8.141   1.675   2.377
 9490SOL    HW230478   8.051   1.796   2.369
 9491SOL     OW30479  10.914   7.560   8.534
 9491SOL    HW130480  10.828   7.588   8.564
 9491SOL    HW230481  10.942   7.494   8.597
 9492SOL     OW30482   8.147   1.637   2.068
 9492SOL    HW130483   8.168   1.722   2.030
 9492SOL    HW230484   8.180   1.574   2.004
 9493SOL     OW30485   9.031   6.798   7.527
 9493SOL    HW130486   9.072   6.788   7.441
 9493SOL    HW230487   9.086   6.746   7.586
 9494SOL     OW30488   1.341   8.592   6.474
 9494SOL    HW130489   1.317   8.566   6.563
 9494SOL    HW230490   1.399   8.667   6.486
 9495SOL     OW30491   7.392   5.801   9.294
 9495SOL    HW130492   7.456   5.786   9.363
 9495SOL    HW230493   7.345   5.718   9.286
 9496SOL     OW30494   9.702   4.925   5.142
 9496SOL    HW130495   9.669   4.910   5.053
 9496SOL    HW230496   9.632   4.973   5.186
 9497SOL     OW30497   4.218   7.384   9.517
 9497SOL    HW130498   4.294   7.437   9.541
 9497SOL    HW230499   4.179   7.429   9.442
 9498SOL     OW30500   2.971   1.828   0.109
 9498SOL    HW130501   3.011   1.809   0.024
 9498SOL    HW230502   3.015   1.769   0.170
 9499SOL     OW30503   0.222   3.965   2.957
 9499SOL    HW130504   0.162   4.037   2.976
 9499SOL    HW230505   0.266   3.947   3.040
 9500SOL     OW30506   1.718   2.114   9.028
 9500SOL    HW130507   1.805   2.104   9.067
 9500SOL    HW230508   1.661   2.135   9.102
 9501SOL     OW30509   3.238   2.051   2.947
 9501SOL    HW130510   3.331   2.073   2.956
 9501SOL    HW230511   3.199   2.077   3.030
 9502SOL     OW30512   5.202   5.438   2.655
 9502SOL    HW130513   5.120   5.449   2.607
 9502SOL    HW230514   5.267   5.484   2.601
 9503SOL     OW30515   3.313   1.416   4.975
 9503SOL    HW130516   3.278   1.361   4.905
 9503SOL    HW230517   3.264   1.389   5.053
 9504SOL     OW30518   0.087   9.125   7.377
 9504SOL    HW130519   0.052   9.120   7.288
 9504SOL    HW230520   0.010   9.140   7.432
 9505SOL     OW30521   3.769   3.621   2.684
 9505SOL    HW130522   3.688   3.648   2.727
 9505SOL    HW230523   3.838   3.635   2.749
 9506SOL     OW30524   8.629   2.302   4.089
 9506SOL    HW130525   8.698   2.349   4.136
 9506SOL    HW230526   8.654   2.210   4.095
 9507SOL     OW30527   6.441   3.065   0.663
 9507SOL    HW130528   6.410   3.145   0.621
 9507SOL    HW230529   6.438   2.999   0.593
 9508SOL     OW30530   4.270   3.036   7.597
 9508SOL    HW130531   4.261   3.041   7.692
 9508SOL    HW230532   4.323   2.957   7.582
 9509SOL     OW30533  10.750   0.226   6.445
 9509SOL    HW130534  10.737   0.215   6.539
 9509SOL    HW230535  10.830   0.278   6.437
 9510SOL     OW30536   4.337   4.031   6.665
 9510SOL    HW130537   4.295   4.031   6.751
 9510SOL    HW230538   4.431   4.023   6.683
 9511SOL     OW30539   4.621   1.061   6.205
 9511SOL    HW130540   4.644   1.097   6.290
 9511SOL    HW230541   4.703   1.026   6.171
 9512SOL     OW30542   1.757   9.947   7.584
 9512SOL    HW130543   1.837   9.913   7.623
 9512SOL    HW230544   1.708   9.985   7.657
 9513SOL     OW30545   7.123   3.716   2.231
 9513SOL    HW130546   7.034   3.742   2.252
 9513SOL    HW230547   7.173   3.734   2.310
 9514SOL     OW30548   3.324   9.795   9.491
 9514SOL    HW130549   3.339   9.754   9.576
 9514SOL    HW230550   3.298   9.884   9.511
 9515SOL     OW30551   6.035   7.911   8.304
 9515SOL    HW130552   6.043   7.962   8.223
 9515SOL    HW230553   6.088   7.959   8.368
 9516SOL     OW30554   3.808   9.956   4.843
 9516SOL    HW130555   3.873   9.976   4.910
 9516SOL    HW230556   3.849   9.887   4.790
 9517SOL     OW30557   2.763   0.101   6.704
 9517SOL    HW130558   2.685   0.068   6.748
 9517SOL    HW230559   2.734   0.180   6.659
 9518SOL     OW30560   1.094   3.899   6.630
 9518SOL    HW130561   1.142   3.899   6.547
 9518SOL    HW230562   1.027   3.831   6.619
 9519SOL     OW30563   4.279   9.481   0.706
 9519SOL    HW130564   4.224   9.557   0.691
 9519SOL    HW230565   4.314   9.493   0.794
 9520SOL     OW30566   3.702   3.746  10.621
 9520SOL    HW130567   3.761   3.819  10.640
 9520SOL    HW230568   3.666   3.721  10.706
 9521SOL     OW30569  10.626   8.250   6.571
 9521SOL    HW130570  10.631   8.159   6.602
 9521SOL    HW230571  10.703   8.293   6.609
 9522SOL     OW30572   0.053   5.328  10.117
 9522SOL    HW130573  -0.036   5.361  10.129
 9522SOL    HW230574   0.093   5.388  10.054
 9523SOL     OW30575   6.128   1.778   6.392
 9523SOL    HW130576   6.139   1.697   6.342
 9523SOL    HW230577   6.118   1.749   6.483
 9524SOL     OW30578   7.990   9.839   8.846
 9524SOL    HW130579   8.057   9.876   8.789
 9524SOL    HW230580   8.028   9.756   8.877
 9525SOL     OW30581   6.327   7.013   5.330
 9525SOL    HW130582   6.340   6.930   5.377
 9525SOL    HW230583   6.395   7.013   5.263
 9526SOL     OW30584   3.070   6.362   7.535
 9526SOL    HW130585   3.080   6.318   7.619
 9526SOL    HW230586   3.156   6.352   7.493
 9527SOL     OW30587   5.751   6.411   3.674
 9527SOL    HW130588   5.820   6.431   3.737
 9527SOL    HW230589   5.675   6.391   3.728
 9528SOL     OW30590   4.872   0.586   9.441
 9528SOL    HW130591   4.811   0.658   9.454
 9528SOL    HW230592   4.856   0.526   9.514
 9529SOL     OW30593  11.014   3.148   0.027
 9529SOL    HW130594  11.024   3.214  -0.041
 9529SOL    HW230595  11.099   3.103   0.029
 9530SOL     OW30596   4.403   3.440   0.592
 9530SOL    HW130597   4.391   3.387   0.671
 9530SOL    HW230598   4.494   3.423   0.565
 9531SOL     OW30599   4.799   8.119   5.395
 9531SOL    HW130600   4.862   8.057   5.431
 9531SOL    HW230601   4.849   8.170   5.331
 9532SOL     OW30602  10.643   5.985   6.489
 9532SOL    HW130603  10.660   5.992   6.583
 9532SOL    HW230604  10.730   5.981   6.449
 9533SOL     OW30605   8.793   8.508   2.732
 9533SOL    HW130606   8.722   8.452   2.763
 9533SOL    HW230607   8.819   8.469   2.648
 9534SOL     OW30608   3.191   5.432   6.467
 9534SOL    HW130609   3.281   5.407   6.491
 9534SOL    HW230610   3.151   5.350   6.437
 9535SOL     OW30611   5.531   4.585   1.351
 9535SOL    HW130612   5.488   4.661   1.312
 9535SOL    HW230613   5.461   4.540   1.398
 9536SOL     OW30614   0.996   7.557   3.279
 9536SOL    HW130615   0.965   7.603   3.356
 9536SOL    HW230616   1.091   7.550   3.291
 9537SOL     OW30617   6.727   4.865   1.748
 9537SOL    HW130618   6.689   4.796   1.802
 9537SOL    HW230619   6.728   4.942   1.804
 9538SOL     OW30620   4.426   0.505   7.699
 9538SOL    HW130621   4.453   0.439   7.763
 9538SOL    HW230622   4.396   0.453   7.624
 9539SOL     OW30623   4.531   4.956  10.547
 9539SOL    HW130624   4.523   4.903  10.467
 9539SOL    HW230625   4.465   4.920  10.606
 9540SOL     OW30626  11.002   9.659   8.772
 9540SOL    HW130627  11.043   9.573   8.778
 9540SOL    HW230628  11.057   9.708   8.711
 9541SOL     OW30629   1.417   2.038   1.237
 9541SOL    HW130630   1.470   1.968   1.198
 9541SOL    HW230631   1.327   2.007   1.228
 9542SOL     OW30632   0.451  10.561   9.331
 9542SOL    HW130633   0.390  10.606   9.272
 9542SOL    HW230634   0.512  10.516   9.272
 9543SOL     OW30635   0.449   2.926   0.949
 9543SOL    HW130636   0.443   2.980   0.870
 9543SOL    HW230637   0.487   2.983   1.015
 9544SOL     OW30638   3.285   8.981   6.734
 9544SOL    HW130639   3.228   8.936   6.796
 9544SOL    HW230640   3.368   8.993   6.781
 9545SOL     OW30641   3.251   5.390   2.549
 9545SOL    HW130642   3.343   5.391   2.575
 9545SOL    HW230643   3.227   5.297   2.551
 9546SOL     OW30644   9.454   8.076   5.586
 9546SOL    HW130645   9.507   8.010   5.630
 9546SOL    HW230646   9.408   8.121   5.656
 9547SOL     OW30647   8.322  10.504   6.976
 9547SOL    HW130648   8.399  10.448   6.972
 9547SOL    HW230649   8.316  10.530   7.068
 9548SOL     OW30650   2.051   5.787   7.671
 9548SOL    HW130651   2.044   5.816   7.580
 9548SOL    HW230652   1.968   5.813   7.711
 9549SOL     OW30653   1.540   4.924   6.869
 9549SOL    HW130654   1.555   4.949   6.778
 9549SOL    HW230655   1.627   4.923   6.908
 9550SOL     OW30656   2.839   4.404   1.133
 9550SOL    HW130657   2.872   4.320   1.166
 9550SOL    HW230658   2.759   4.420   1.183
 9551SOL     OW30659   1.123   9.953   9.275
 9551SOL    HW130660   1.218   9.941   9.282
 9551SOL    HW230661   1.111  10.002   9.193
 9552SOL     OW30662   7.768   6.775   1.685
 9552SOL    HW130663   7.779   6.821   1.768
 9552SOL    HW230664   7.748   6.844   1.622
 9553SOL     OW30665   4.968   9.603   5.511
 9553SOL    HW130666   5.011   9.585   5.595
 9553SOL    HW230667   4.914   9.525   5.495
 9554SOL     OW30668   3.738   6.271   2.802
 9554SOL    HW130669   3.723   6.238   2.890
 9554SOL    HW230670   3.804   6.212   2.765
 9555SOL     OW30671   4.386  11.039   5.453
 9555SOL    HW130672   4.384  11.012   5.545
 9555SOL    HW230673   4.295  11.060   5.432
 9556SOL     OW30674   4.202   6.803   5.531
 9556SOL    HW130675   4.264   6.782   5.461
 9556SOL    HW230676   4.181   6.895   5.518
 9557SOL     OW30677   5.879   0.178   4.892
 9557SOL    HW130678   5.791   0.143   4.879
 9557SOL    HW230679   5.937   0.112   4.852
 9558SOL     OW30680   3.142   9.434   8.121
 9558SOL    HW130681   3.118   9.503   8.182
 9558SOL    HW230682   3.063   9.417   8.070
 9559SOL     OW30683   9.729  11.089   6.883
 9559SOL    HW130684   9.792  11.056   6.947
 9559SOL    HW230685   9.781  11.145   6.825
 9560SOL     OW30686   4.079   0.077   6.146
 9560SOL    HW130687   4.071   0.006   6.210
 9560SOL    HW230688   4.005   0.064   6.087
 9561SOL     OW30689   6.278   2.229  10.496
 9561SOL    HW130690   6.288   2.313  10.539
 9561SOL    HW230691   6.280   2.165  10.567
 9562SOL     OW30692   2.450   2.664   1.641
 9562SOL    HW130693   2.494   2.654   1.725
 9562SOL    HW230694   2.471   2.584   1.593
 9563SOL     OW30695   6.783   5.483   8.554
 9563SOL    HW130696   6.831   5.405   8.524
 9563SOL    HW230697   6.851   5.540   8.591
 9564SOL     OW30698   3.771   1.283   3.736
 9564SOL    HW130699   3.750   1.342   3.664
 9564SOL    HW230700   3.799   1.340   3.807
 9565SOL     OW30701   3.286   3.997   4.716
 9565SOL    HW130702   3.203   3.974   4.757
 9565SOL    HW230703   3.286   4.092   4.712
 9566SOL     OW30704   6.405   9.960   3.903
 9566SOL    HW130705   6.417   9.881   3.849
 9566SOL    HW230706   6.322   9.946   3.947
 9567SOL     OW30707  10.077   7.519   9.145
 9567SOL    HW130708  10.039   7.589   9.198
 9567SOL    HW230709  10.167   7.510   9.177
 9568SOL     OW30710   1.402   6.989   9.455
 9568SOL    HW130711   1.469   6.920   9.457
 9568SOL    HW230712   1.447   7.067   9.488
 9569SOL     OW30713   6.073   4.680  10.012
 9569SOL    HW130714   6.038   4.754   9.962
 9569SOL    HW230715   6.168   4.690  10.006
 9570SOL     OW30716   4.410   3.799   5.049
 9570SOL    HW130717   4.395   3.892   5.063
 9570SOL    HW230718   4.377   3.782   4.960
 9571SOL     OW30719   7.779   0.386   1.296
 9571SOL    HW130720   7.804   0.332   1.221
 9571SOL    HW230721   7.853   0.380   1.356
 9572SOL     OW30722   5.182   4.519  10.334
 9572SOL    HW130723   5.112   4.583  10.348
 9572SOL    HW230724   5.213   4.498  10.422
 9573SOL     OW30725   0.360   8.996   7.220
 9573SOL    HW130726   0.423   9.052   7.174
 9573SOL    HW230727   0.302   8.962   7.151
 9574SOL     OW30728   9.228   2.885   1.123
 9574SOL    HW130729   9.147   2.925   1.154
 9574SOL    HW230730   9.248   2.931   1.041
 9575SOL     OW30731   3.215   1.143   0.932
 9575SOL    HW130732   3.159   1.065   0.937
 9575SOL    HW230733   3.209   1.171   0.840
 9576SOL     OW30734   1.183  10.003   6.110
 9576SOL    HW130735   1.205   9.913   6.086
 9576SOL    HW230736   1.257  10.055   6.077
 9577SOL     OW30737   3.023   2.681   9.930
 9577SOL    HW130738   3.070   2.757   9.962
 9577SOL    HW230739   2.968   2.714   9.859
 9578SOL     OW30740   2.469  10.441   8.702
 9578SOL    HW130741   2.444  10.514   8.759
 9578SOL    HW230742   2.386  10.404   8.673
 9579SOL     OW30743   6.987   3.354   9.549
 9579SOL    HW130744   6.949   3.366   9.636
 9579SOL    HW230745   6.933   3.286   9.508
 9580SOL     OW30746   9.985   2.296   8.075
 9580SOL    HW130747  10.012   2.339   8.156
 9580SOL    HW230748   9.898   2.262   8.094
 9581SOL     OW30749   1.248   2.397  10.527
 9581SOL    HW130750   1.257   2.348  10.445
 9581SOL    HW230751   1.159   2.377  10.557
 9582SOL     OW30752   6.286   2.626   9.195
 9582SOL    HW130753   6.228   2.587   9.260
 9582SOL    HW230754   6.361   2.657   9.245
 9583SOL     OW30755   3.997   0.899   9.015
 9583SOL    HW130756   4.061   0.968   9.030
 9583SOL    HW230757   4.038   0.820   9.051
 9584SOL     OW30758  11.040   0.722   6.730
 9584SOL    HW130759  10.969   0.780   6.705
 9584SOL    HW230760  11.005   0.671   6.803
 9585SOL     OW30761   9.924   4.517  10.999
 9585SOL    HW130762   9.841   4.544  11.037
 9585SOL    HW230763   9.900   4.451  10.934
 9586SOL     OW30764   0.382   3.668   9.674
 9586SOL    HW130765   0.408   3.720   9.598
 9586SOL    HW230766   0.332   3.595   9.637
 9587SOL     OW30767  10.361   9.728   9.012
 9587SOL    HW130768  10.327   9.656   8.958
 9587SOL    HW230769  10.445   9.694   9.045
 9588SOL     OW30770   9.641   1.384   8.260
 9588SOL    HW130771   9.631   1.478   8.270
 9588SOL    HW230772   9.573   1.359   8.197
 9589SOL     OW30773   6.267   2.826   0.785
 9589SOL    HW130774   6.208   2.770   0.733
 9589SOL    HW230775   6.322   2.869   0.719
 9590SOL     OW30776   3.285   7.901  10.092
 9590SOL    HW130777   3.336   7.855  10.025
 9590SOL    HW230778   3.266   7.833  10.157
 9591SOL     OW30779   6.361   4.818  10.733
 9591SOL    HW130780   6.411   4.899  10.723
 9591SOL    HW230781   6.300   4.818  10.659
 9592SOL     OW30782   3.558   3.694   6.042
 9592SOL    HW130783   3.514   3.750   6.106
 9592SOL    HW230784   3.530   3.605   6.065
 9593SOL     OW30785   2.364   9.330   7.073
 9593SOL    HW130786   2.389   9.405   7.019
 9593SOL    HW230787   2.414   9.341   7.154
 9594SOL     OW30788   4.330   2.805  10.578
 9594SOL    HW130789   4.413   2.847  10.556
 9594SOL    HW230790   4.336   2.787  10.672
 9595SOL     OW30791   7.140   5.802   2.175
 9595SOL    HW130792   7.148   5.896   2.192
 9595SOL    HW230793   7.223   5.765   2.204
 9596SOL     OW30794   7.413   3.881   1.167
 9596SOL    HW130795   7.388   3.865   1.076
 9596SOL    HW230796   7.479   3.950   1.162
 9597SOL     OW30797   5.724   9.936   9.721
 9597SOL    HW130798   5.756   9.855   9.762
 9597SOL    HW230799   5.792   9.959   9.658
 9598SOL     OW30800   4.751   2.549   4.104
 9598SOL    HW130801   4.698   2.628   4.104
 9598SOL    HW230802   4.733   2.508   4.188
 9599SOL     OW30803   4.281   0.515  10.900
 9599SOL    HW130804   4.207   0.460  10.874
 9599SOL    HW230805   4.273   0.523  10.995
 9600SOL     OW30806   2.160   2.014   1.328
 9600SOL    HW130807   2.256   2.011   1.325
 9600SOL    HW230808   2.135   1.935   1.376
 9601SOL     OW30809   6.226   4.244   1.660
 9601SOL    HW130810   6.256   4.333   1.678
 9601SOL    HW230811   6.131   4.252   1.650
 9602SOL     OW30812  10.053   0.778   0.500
 9602SOL    HW130813  10.031   0.871   0.506
 9602SOL    HW230814  10.145   0.773   0.526
 9603SOL     OW30815   2.356  10.096   8.820
 9603SOL    HW130816   2.450  10.085   8.832
 9603SOL    HW230817   2.321  10.007   8.821
 9604SOL     OW30818   5.853   2.929   4.946
 9604SOL    HW130819   5.935   2.938   4.897
 9604SOL    HW230820   5.851   2.837   4.972
 9605SOL     OW30821   9.554   5.014   8.528
 9605SOL    HW130822   9.533   5.094   8.575
 9605SOL    HW230823   9.623   5.039   8.466
 9606SOL     OW30824   1.068   7.191   6.599
 9606SOL    HW130825   1.154   7.152   6.581
 9606SOL    HW230826   1.014   7.118   6.629
 9607SOL     OW30827   9.430  10.819   2.739
 9607SOL    HW130828   9.445  10.784   2.651
 9607SOL    HW230829   9.349  10.777   2.767
 9608SOL     OW30830   2.428   7.845   0.012
 9608SOL    HW130831   2.434   7.899   0.091
 9608SOL    HW230832   2.363   7.778   0.034
 9609SOL     OW30833   3.431   6.182   9.241
 9609SOL    HW130834   3.490   6.210   9.171
 9609SOL    HW230835   3.347   6.168   9.197
 9610SOL     OW30836   3.602   0.264   1.910
 9610SOL    HW130837   3.546   0.196   1.948
 9610SOL    HW230838   3.588   0.340   1.965
 9611SOL     OW30839   3.168   2.736   9.627
 9611SOL    HW130840   3.234   2.671   9.653
 9611SOL    HW230841   3.211   2.820   9.640
 9612SOL     OW30842   6.657   1.575   2.113
 9612SOL    HW130843   6.596   1.519   2.064
 9612SOL    HW230844   6.607   1.604   2.189
 9613SOL     OW30845   3.093   1.283   7.291
 9613SOL    HW130846   3.038   1.255   7.364
 9613SOL    HW230847   3.032   1.294   7.218
 9614SOL     OW30848   8.296   1.616   5.238
 9614SOL    HW130849   8.365   1.626   5.172
 9614SOL    HW230850   8.333   1.554   5.301
 9615SOL     OW30851   0.933   5.147   4.133
 9615SOL    HW130852   0.958   5.071   4.186
 9615SOL    HW230853   1.010   5.203   4.134
 9616SOL     OW30854   9.304   9.539   0.089
 9616SOL    HW130855   9.258   9.473   0.038
 9616SOL    HW230856   9.304   9.504   0.179
 9617SOL     OW30857   0.639   9.281   6.867
 9617SOL    HW130858   0.662   9.368   6.835
 9617SOL    HW230859   0.576   9.248   6.803
 9618SOL     OW30860   8.266   9.422   5.751
 9618SOL    HW130861   8.210   9.354   5.714
 9618SOL    HW230862   8.304   9.465   5.674
 9619SOL     OW30863   0.086  10.408   4.971
 9619SOL    HW130864   0.153  10.401   5.038
 9619SOL    HW230865   0.020  10.343   4.996
 9620SOL     OW30866   5.736   7.900  11.093
 9620SOL    HW130867   5.811   7.850  11.125
 9620SOL    HW230868   5.755   7.916  11.000
 9621SOL     OW30869   6.800   0.692   8.119
 9621SOL    HW130870   6.706   0.678   8.113
 9621SOL    HW230871   6.832   0.619   8.172
 9622SOL     OW30872   6.429   5.516   6.103
 9622SOL    HW130873   6.355   5.575   6.113
 9622SOL    HW230874   6.400   5.434   6.143
 9623SOL     OW30875   4.649   9.079   9.191
 9623SOL    HW130876   4.669   8.988   9.214
 9623SOL    HW230877   4.646   9.125   9.275
 9624SOL     OW30878   6.741   3.880   0.043
 9624SOL    HW130879   6.753   3.963   0.089
 9624SOL    HW230880   6.824   3.865  -0.002
 9625SOL     OW30881   9.013  10.781   0.327
 9625SOL    HW130882   9.016  10.798   0.421
 9625SOL    HW230883   8.923  10.802   0.301
 9626SOL     OW30884   4.919   2.703   8.406
 9626SOL    HW130885   4.843   2.672   8.356
 9626SOL    HW230886   4.907   2.666   8.493
 9627SOL     OW30887  10.192   9.286   1.963
 9627SOL    HW130888  10.287   9.296   1.962
 9627SOL    HW230889  10.174   9.218   1.898
 9628SOL     OW30890  10.098   4.591   5.595
 9628SOL    HW130891  10.053   4.675   5.596
 9628SOL    HW230892  10.135   4.584   5.507
 9629SOL     OW30893  10.191   8.082   8.159
 9629SOL    HW130894  10.239   8.113   8.082
 9629SOL    HW230895  10.099   8.088   8.133
 9630SOL     OW30896   5.598   0.500   0.903
 9630SOL    HW130897   5.616   0.565   0.835
 9630SOL    HW230898   5.503   0.495   0.907
 9631SOL     OW30899   0.222   2.915   3.785
 9631SOL    HW130900   0.137   2.952   3.758
 9631SOL    HW230901   0.250   2.969   3.858
 9632SOL     OW30902   3.262   8.642   4.951
 9632SOL    HW130903   3.315   8.664   4.874
 9632SOL    HW230904   3.177   8.616   4.915
 9633SOL     OW30905   3.183   0.007   1.040
 9633SOL    HW130906   3.246   0.010   1.112
 9633SOL    HW230907   3.154  -0.085   1.038
 9634SOL     OW30908   4.951   1.775   4.349
 9634SOL    HW130909   5.028   1.828   4.369
 9634SOL    HW230910   4.956   1.760   4.254
 9635SOL     OW30911   6.639  10.736   5.059
 9635SOL    HW130912   6.631  10.823   5.020
 9635SOL    HW230913   6.577  10.736   5.132
 9636SOL     OW30914   3.580   2.074   3.101
 9636SOL    HW130915   3.577   2.169   3.104
 9636SOL    HW230916   3.577   2.053   3.007
 9637SOL     OW30917   1.536   1.002   0.419
 9637SOL    HW130918   1.551   0.908   0.407
 9637SOL    HW230919   1.445   1.008   0.446
 9638SOL     OW30920  11.053   9.668   3.919
 9638SOL    HW130921  11.114   9.723   3.967
 9638SOL    HW230922  11.074   9.579   3.947
 9639SOL     OW30923  11.032  10.481   1.547
 9639SOL    HW130924  10.965  10.432   1.594
 9639SOL    HW230925  11.049  10.557   1.602
 9640SOL     OW30926   7.612   3.694   0.471
 9640SOL    HW130927   7.687   3.644   0.438
 9640SOL    HW230928   7.643   3.731   0.553
 9641SOL     OW30929   3.257   4.302   7.433
 9641SOL    HW130930   3.180   4.284   7.379
 9641SOL    HW230931   3.330   4.263   7.384
 9642SOL     OW30932   5.589   3.539   4.414
 9642SOL    HW130933   5.518   3.601   4.428
 9642SOL    HW230934   5.574   3.505   4.325
 9643SOL     OW30935   1.401   2.117   9.685
 9643SOL    HW130936   1.452   2.074   9.754
 9643SOL    HW230937   1.373   2.045   9.628
 9644SOL     OW30938  10.474   3.779   2.276
 9644SOL    HW130939  10.461   3.716   2.347
 9644SOL    HW230940  10.557   3.753   2.236
 9645SOL     OW30941   5.310   5.259   2.821
 9645SOL    HW130942   5.394   5.247   2.775
 9645SOL    HW230943   5.257   5.311   2.760
 9646SOL     OW30944   6.957   1.694   5.964
 9646SOL    HW130945   6.947   1.695   6.059
 9646SOL    HW230946   6.895   1.759   5.932
 9647SOL     OW30947   9.424   0.232   3.847
 9647SOL    HW130948   9.347   0.241   3.791
 9647SOL    HW230949   9.393   0.183   3.923
 9648SOL     OW30950   5.205   0.290   4.109
 9648SOL    HW130951   5.292   0.253   4.091
 9648SOL    HW230952   5.147   0.246   4.046
 9649SOL     OW30953   1.412   7.370   6.348
 9649SOL    HW130954   1.378   7.445   6.397
 9649SOL    HW230955   1.338   7.309   6.343
 9650SOL     OW30956   6.737   5.872   1.468
 9650SOL    HW130957   6.786   5.862   1.550
 9650SOL    HW230958   6.775   5.806   1.409
 9651SOL     OW30959   0.957   4.539   0.666
 9651SOL    HW130960   0.977   4.592   0.589
 9651SOL    HW230961   1.029   4.476   0.671
 9652SOL     OW30962   7.741  10.322   8.019
 9652SOL    HW130963   7.816  10.352   7.968
 9652SOL    HW230964   7.765  10.339   8.110
 9653SOL     OW30965   9.187   6.936   7.794
 9653SOL    HW130966   9.240   6.858   7.773
 9653SOL    HW230967   9.215   7.002   7.730
 9654SOL     OW30968   2.874   2.524   7.860
 9654SOL    HW130969   2.855   2.503   7.951
 9654SOL    HW230970   2.849   2.616   7.851
 9655SOL     OW30971   1.854   1.045   5.942
 9655SOL    HW130972   1.873   1.138   5.939
 9655SOL    HW230973   1.760   1.039   5.928
 9656SOL     OW30974   0.613   0.405   9.240
 9656SOL    HW130975   0.519   0.401   9.259
 9656SOL    HW230976   0.646   0.319   9.266
 9657SOL     OW30977   0.182   3.109   3.982
 9657SOL    HW130978   0.153   3.200   3.990
 9657SOL    HW230979   0.102   3.060   3.963
 9658SOL     OW30980   3.605   9.991   7.581
 9658SOL    HW130981   3.691   9.977   7.621
 9658SOL    HW230982   3.544   9.994   7.654
 9659SOL     OW30983   2.351   2.131   0.586
 9659SOL    HW130984   2.261   2.101   0.597
 9659SOL    HW230985   2.392   2.062   0.534
 9660SOL     OW30986   9.613   5.380   7.996
 9660SOL    HW130987   9.692   5.419   7.959
 9660SOL    HW230988   9.614   5.407   8.088
 9661SOL     OW30989   0.443   3.181   2.082
 9661SOL    HW130990   0.432   3.268   2.045
 9661SOL    HW230991   0.479   3.129   2.010
 9662SOL     OW30992   3.349   5.309   1.590
 9662SOL    HW130993   3.380   5.395   1.562
 9662SOL    HW230994   3.330   5.318   1.683
 9663SOL     OW30995   2.122   7.425  10.462
 9663SOL    HW130996   2.088   7.390  10.544
 9663SOL    HW230997   2.119   7.520  10.473
 9664SOL     OW30998   1.229  10.813  11.077
 9664SOL    HW130999   1.178  10.863  11.013
 9664SOL    HW231000   1.320  10.821  11.046
 9665SOL     OW31001   2.078   3.099   7.229
 9665SOL    HW131002   2.161   3.113   7.275
 9665SOL    HW231003   2.058   3.006   7.243
 9666SOL     OW31004   2.084   8.448   8.544
 9666SOL    HW131005   1.997   8.468   8.509
 9666SOL    HW231006   2.080   8.355   8.566
 9667SOL     OW31007   0.674   8.791   0.981
 9667SOL    HW131008   0.619   8.719   1.013
 9667SOL    HW231009   0.742   8.801   1.048
 9668SOL     OW31010   2.346   0.171   6.855
 9668SOL    HW131011   2.359   0.179   6.949
 9668SOL    HW231012   2.362   0.078   6.836
 9669SOL     OW31013   3.857   9.433   8.338
 9669SOL    HW131014   3.781   9.380   8.314
 9669SOL    HW231015   3.839   9.519   8.301
 9670SOL     OW31016   7.371   1.441   8.424
 9670SOL    HW131017   7.364   1.378   8.352
 9670SOL    HW231018   7.380   1.386   8.502
 9671SOL     OW31019   3.851   7.031   1.613
 9671SOL    HW131020   3.886   6.991   1.533
 9671SOL    HW231021   3.929   7.052   1.665
 9672SOL     OW31022   5.541   5.652   8.671
 9672SOL    HW131023   5.490   5.643   8.590
 9672SOL    HW231024   5.570   5.563   8.691
 9673SOL     OW31025   5.635   1.970   1.191
 9673SOL    HW131026   5.581   2.025   1.246
 9673SOL    HW231027   5.724   2.000   1.206
 9674SOL     OW31028   0.939   2.770   8.808
 9674SOL    HW131029   0.967   2.784   8.717
 9674SOL    HW231030   0.997   2.825   8.860
 9675SOL     OW31031   4.070   4.096  10.831
 9675SOL    HW131032   4.164   4.098  10.813
 9675SOL    HW231033   4.053   4.176  10.879
 9676SOL     OW31034   6.899   1.167   9.063
 9676SOL    HW131035   6.828   1.149   9.125
 9676SOL    HW231036   6.955   1.230   9.108
 9677SOL     OW31037   0.324  10.864   7.921
 9677SOL    HW131038   0.336  10.953   7.953
 9677SOL    HW231039   0.411  10.825   7.926
 9678SOL     OW31040   4.284   0.044   4.781
 9678SOL    HW131041   4.283   0.051   4.876
 9678SOL    HW231042   4.316   0.129   4.750
 9679SOL     OW31043   8.970   6.459  10.899
 9679SOL    HW131044   8.883   6.480  10.866
 9679SOL    HW231045   8.995   6.534  10.952
 9680SOL     OW31046   4.919   1.131   7.601
 9680SOL    HW131047   4.975   1.102   7.673
 9680SOL    HW231048   4.850   1.182   7.643
 9681SOL     OW31049  10.167   2.622   1.604
 9681SOL    HW131050  10.200   2.571   1.678
 9681SOL    HW231051  10.243   2.630   1.546
 9682SOL     OW31052   6.134   8.652   2.778
 9682SOL    HW131053   6.119   8.626   2.869
 9682SOL    HW231054   6.227   8.675   2.775
 9683SOL     OW31055   8.389   9.955   0.095
 9683SOL    HW131056   8.480   9.938   0.069
 9683SOL    HW231057   8.390   9.946   0.191
 9684SOL     OW31058   9.999   1.901   0.063
 9684SOL    HW131059  10.064   1.841   0.026
 9684SOL    HW231060   9.987   1.871   0.153
 9685SOL     OW31061   0.056   2.640   6.002
 9685SOL    HW131062   0.138   2.606   5.966
 9685SOL    HW231063   0.035   2.581   6.074
 9686SOL     OW31064   0.815   2.397   2.228
 9686SOL    HW131065   0.730   2.372   2.265
 9686SOL    HW231066   0.803   2.488   2.201
 9687SOL     OW31067   5.014   2.971   8.897
 9687SOL    HW131068   4.965   3.030   8.840
 9687SOL    HW231069   5.088   2.943   8.843
 9688SOL     OW31070   7.715   9.613  10.172
 9688SOL    HW131071   7.788   9.652  10.123
 9688SOL    HW231072   7.750   9.600  10.260
 9689SOL     OW31073   3.477   0.037   2.005
 9689SOL    HW131074   3.478  -0.042   2.059
 9689SOL    HW231075   3.426   0.012   1.928
 9690SOL     OW31076   1.175   1.135   4.687
 9690SOL    HW131077   1.179   1.043   4.714
 9690SOL    HW231078   1.102   1.138   4.625
 9691SOL     OW31079   0.469  10.491   7.258
 9691SOL    HW131080   0.460  10.455   7.346
 9691SOL    HW231081   0.440  10.421   7.200
 9692SOL     OW31082   1.768   2.320   5.470
 9692SOL    HW131083   1.766   2.288   5.560
 9692SOL    HW231084   1.790   2.413   5.477
 9693SOL     OW31085  10.932  10.093   3.405
 9693SOL    HW131086  10.849  10.109   3.450
 9693SOL    HW231087  10.963  10.180   3.380
 9694SOL     OW31088   6.568   3.714   7.847
 9694SOL    HW131089   6.540   3.701   7.937
 9694SOL    HW231090   6.487   3.720   7.797
 9695SOL     OW31091   5.084  10.673   6.683
 9695SOL    HW131092   5.074  10.649   6.591
 9695SOL    HW231093   5.169  10.637   6.708
 9696SOL     OW31094   5.472   9.468   9.910
 9696SOL    HW131095   5.470   9.426   9.824
 9696SOL    HW231096   5.552   9.434   9.951
 9697SOL     OW31097   0.926   9.941   2.389
 9697SOL    HW131098   0.953   9.870   2.448
 9697SOL    HW231099   0.834   9.956   2.410
 9698SOL     OW31100   8.873   4.466  10.395
 9698SOL    HW131101   8.861   4.373  10.374
 9698SOL    HW231102   8.877   4.469  10.490
 9699SOL     OW31103   1.083  10.502  10.818
 9699SOL    HW131104   1.178  10.491  10.808
 9699SOL    HW231105   1.070  10.515  10.912
 9700SOL     OW31106   3.960   3.729  10.409
 9700SOL    HW131107   3.879   3.749  10.363
 9700SOL    HW231108   4.029   3.747  10.345
 9701SOL     OW31109   1.324   3.586   9.870
 9701SOL    HW131110   1.308   3.530   9.946
 9701SOL    HW231111   1.237   3.611   9.840
 9702SOL     OW31112   3.766   8.705   4.782
 9702SOL    HW131113   3.858   8.725   4.766
 9702SOL    HW231114   3.721   8.789   4.774
 9703SOL     OW31115   9.838   4.647   9.105
 9703SOL    HW131116   9.872   4.662   9.193
 9703SOL    HW231117   9.743   4.643   9.116
 9704SOL     OW31118   3.449   0.006   9.022
 9704SOL    HW131119   3.368   0.056   9.017
 9704SOL    HW231120   3.448  -0.032   9.110
 9705SOL     OW31121   9.844   0.119   9.060
 9705SOL    HW131122   9.879   0.165   8.984
 9705SOL    HW231123   9.912   0.055   9.081
 9706SOL     OW31124   1.535   1.707   4.910
 9706SOL    HW131125   1.464   1.653   4.876
 9706SOL    HW231126   1.562   1.663   4.990
 9707SOL     OW31127   2.396   9.624   4.237
 9707SOL    HW131128   2.391   9.549   4.176
 9707SOL    HW231129   2.342   9.691   4.196
 9708SOL     OW31130   4.741  10.831   3.006
 9708SOL    HW131131   4.729  10.843   3.100
 9708SOL    HW231132   4.834  10.849   2.991
 9709SOL     OW31133   3.135   0.717   6.346
 9709SOL    HW131134   3.121   0.650   6.413
 9709SOL    HW231135   3.112   0.799   6.389
 9710SOL     OW31136   2.002   1.668   5.604
 9710SOL    HW131137   1.974   1.759   5.614
 9710SOL    HW231138   2.052   1.667   5.522
 9711SOL     OW31139   2.686   9.507   9.565
 9711SOL    HW131140   2.712   9.593   9.533
 9711SOL    HW231141   2.768   9.467   9.595
 9712SOL     OW31142   1.048   2.443   9.978
 9712SOL    HW131143   0.965   2.462  10.020
 9712SOL    HW231144   1.038   2.354   9.944
 9713SOL     OW31145   9.845   7.732   9.757
 9713SOL    HW131146   9.882   7.661   9.809
 9713SOL    HW231147   9.915   7.757   9.697
 9714SOL     OW31148   8.877   4.335   2.264
 9714SOL    HW131149   8.921   4.405   2.216
 9714SOL    HW231150   8.879   4.363   2.355
 9715SOL     OW31151   0.143   4.817   0.903
 9715SOL    HW131152   0.061   4.856   0.935
 9715SOL    HW231153   0.125   4.797   0.811
 9716SOL     OW31154   4.198   1.310  10.243
 9716SOL    HW131155   4.126   1.347  10.192
 9716SOL    HW231156   4.242   1.386  10.281
 9717SOL     OW31157   6.889   2.155   3.644
 9717SOL    HW131158   6.958   2.101   3.606
 9717SOL    HW231159   6.912   2.244   3.619
 9718SOL     OW31160   2.409   4.173   1.888
 9718SOL    HW131161   2.502   4.151   1.881
 9718SOL    HW231162   2.364   4.094   1.858
 9719SOL     OW31163   4.857   5.567   8.778
 9719SOL    HW131164   4.896   5.576   8.865
 9719SOL    HW231165   4.839   5.473   8.770
 9720SOL     OW31166   2.651   7.177   0.557
 9720SOL    HW131167   2.744   7.187   0.537
 9720SOL    HW231168   2.648   7.164   0.651
 9721SOL     OW31169   2.597   2.708   5.835
 9721SOL    HW131170   2.627   2.768   5.903
 9721SOL    HW231171   2.677   2.676   5.794
 9722SOL     OW31172   6.921   3.650   2.030
 9722SOL    HW131173   6.926   3.722   1.967
 9722SOL    HW231174   6.995   3.664   2.089
 9723SOL     OW31175  10.776   1.282   2.842
 9723SOL    HW131176  10.731   1.346   2.896
 9723SOL    HW231177  10.868   1.287   2.869
 9724SOL     OW31178   3.524   7.586   9.316
 9724SOL    HW131179   3.601   7.529   9.322
 9724SOL    HW231180   3.489   7.568   9.229
 9725SOL     OW31181   8.292   1.031   4.568
 9725SOL    HW131182   8.271   1.038   4.661
 9725SOL    HW231183   8.210   1.004   4.527
 9726SOL     OW31184   2.274   7.107   7.956
 9726SOL    HW131185   2.199   7.090   7.899
 9726SOL    HW231186   2.318   7.182   7.916
 9727SOL     OW31187   7.458   4.082   7.977
 9727SOL    HW131188   7.466   4.049   8.066
 9727SOL    HW231189   7.406   4.015   7.932
 9728SOL     OW31190   7.963   2.374   6.871
 9728SOL    HW131191   8.007   2.348   6.790
 9728SOL    HW231192   8.024   2.435   6.912
 9729SOL     OW31193   0.679   0.411   2.185
 9729SOL    HW131194   0.701   0.414   2.092
 9729SOL    HW231195   0.652   0.320   2.199
 9730SOL     OW31196   6.119   4.343   1.147
 9730SOL    HW131197   6.149   4.388   1.226
 9730SOL    HW231198   6.187   4.278   1.129
 9731SOL     OW31199   0.391   1.195   8.745
 9731SOL    HW131200   0.429   1.154   8.822
 9731SOL    HW231201   0.318   1.247   8.779
 9732SOL     OW31202  10.372   3.698   0.319
 9732SOL    HW131203  10.291   3.666   0.359
 9732SOL    HW231204  10.417   3.618   0.290
 9733SOL     OW31205   0.110  10.744   1.328
 9733SOL    HW131206   0.100  10.737   1.233
 9733SOL    HW231207   0.042  10.806   1.355
 9734SOL     OW31208   7.875   6.395   2.973
 9734SOL    HW131209   7.970   6.407   2.970
 9734SOL    HW231210   7.840   6.467   2.921
 9735SOL     OW31211   3.108   3.309   8.295
 9735SOL    HW131212   3.198   3.316   8.262
 9735SOL    HW231213   3.057   3.281   8.219
 9736SOL     OW31214   7.537   4.939  10.414
 9736SOL    HW131215   7.493   4.904  10.336
 9736SOL    HW231216   7.608   4.876  10.432
 9737SOL     OW31217   1.425   2.287   9.062
 9737SOL    HW131218   1.351   2.347   9.054
 9737SOL    HW231219   1.474   2.319   9.137
 9738SOL     OW31220   2.205   1.272   1.465
 9738SOL    HW131221   2.247   1.356   1.482
 9738SOL    HW231222   2.113   1.293   1.453
 9739SOL     OW31223   6.759   2.467   9.781
 9739SOL    HW131224   6.809   2.544   9.807
 9739SOL    HW231225   6.678   2.473   9.830
 9740SOL     OW31226   7.962   3.934   1.150
 9740SOL    HW131227   8.023   3.922   1.077
 9740SOL    HW231228   7.878   3.902   1.116
 9741SOL     OW31229  10.312   1.378   8.704
 9741SOL    HW131230  10.277   1.461   8.736
 9741SOL    HW231231  10.405   1.382   8.725
 9742SOL     OW31232   9.700   0.776   3.860
 9742SOL    HW131233   9.635   0.705   3.858
 9742SOL    HW231234   9.654   0.852   3.825
 9743SOL     OW31235   3.045   2.439   7.568
 9743SOL    HW131236   3.106   2.368   7.546
 9743SOL    HW231237   3.092   2.493   7.632
 9744SOL     OW31238   2.003   3.996   7.771
 9744SOL    HW131239   2.067   3.988   7.700
 9744SOL    HW231240   2.005   3.910   7.814
 9745SOL     OW31241   2.792   4.244   7.642
 9745SOL    HW131242   2.823   4.217   7.555
 9745SOL    HW231243   2.823   4.334   7.652
 9746SOL     OW31244   8.411   3.438   6.884
 9746SOL    HW131245   8.437   3.346   6.874
 9746SOL    HW231246   8.463   3.484   6.818
 9747SOL     OW31247   7.408   4.920  10.187
 9747SOL    HW131248   7.366   4.991  10.138
 9747SOL    HW231249   7.350   4.845  10.175
 9748SOL     OW31250   3.976   7.259   9.598
 9748SOL    HW131251   4.058   7.301   9.572
 9748SOL    HW231252   3.976   7.263   9.693
 9749SOL     OW31253   4.288  11.021   7.882
 9749SOL    HW131254   4.222  11.088   7.901
 9749SOL    HW231255   4.362  11.044   7.938
 9750SOL     OW31256   1.909   3.014   4.776
 9750SOL    HW131257   1.827   2.968   4.795
 9750SOL    HW231258   1.924   3.069   4.853
 9751SOL     OW31259   9.372   3.120   0.608
 9751SOL    HW131260   9.282   3.088   0.601
 9751SOL    HW231261   9.418   3.051   0.656
 9752SOL     OW31262   9.227   9.996  10.141
 9752SOL    HW131263   9.169   9.922  10.161
 9752SOL    HW231264   9.188  10.070  10.188
 9753SOL     OW31265   8.590  10.669   1.103
 9753SOL    HW131266   8.519  10.609   1.128
 9753SOL    HW231267   8.656  10.613   1.062
 9754SOL     OW31268  10.932   7.000   7.691
 9754SOL    HW131269  10.901   7.008   7.781
 9754SOL    HW231270  10.857   6.966   7.643
 9755SOL     OW31271   2.046   7.120  10.126
 9755SOL    HW131272   1.997   7.136  10.206
 9755SOL    HW231273   2.071   7.207  10.095
 9756SOL     OW31274  11.057   0.402  10.163
 9756SOL    HW131275  11.099   0.474  10.210
 9756SOL    HW231276  11.084   0.414  10.072
 9757SOL     OW31277   9.773   0.320   4.523
 9757SOL    HW131278   9.734   0.386   4.580
 9757SOL    HW231279   9.702   0.294   4.464
 9758SOL     OW31280  10.524   4.859   7.863
 9758SOL    HW131281  10.499   4.858   7.955
 9758SOL    HW231282  10.595   4.923   7.857
 9759SOL     OW31283   1.105  10.662   3.798
 9759SOL    HW131284   1.083  10.614   3.718
 9759SOL    HW231285   1.059  10.616   3.868
 9760SOL     OW31286   9.652   4.913   6.968
 9760SOL    HW131287   9.643   4.999   6.928
 9760SOL    HW231288   9.746   4.893   6.961
 9761SOL     OW31289   8.756   0.074   7.283
 9761SOL    HW131290   8.839   0.029   7.268
 9761SOL    HW231291   8.714   0.024   7.353
 9762SOL     OW31292   4.833   3.834  10.088
 9762SOL    HW131293   4.907   3.894  10.092
 9762SOL    HW231294   4.871   3.748  10.109
 9763SOL     OW31295   6.235   9.803   8.571
 9763SOL    HW131296   6.324   9.768   8.575
 9763SOL    HW231297   6.192   9.750   8.504
 9764SOL     OW31298   5.587   4.809   3.126
 9764SOL    HW131299   5.564   4.883   3.069
 9764SOL    HW231300   5.587   4.845   3.214
 9765SOL     OW31301  10.829   8.133   9.827
 9765SOL    HW131302  10.872   8.078   9.761
 9765SOL    HW231303  10.744   8.092   9.839
 9766SOL     OW31304   4.894   5.656   3.945
 9766SOL    HW131305   4.933   5.628   4.028
 9766SOL    HW231306   4.806   5.620   3.947
 9767SOL     OW31307   3.989  10.547   2.023
 9767SOL    HW131308   4.061  10.601   2.057
 9767SOL    HW231309   3.919  10.610   2.004
 9768SOL     OW31310   4.898   3.747   1.796
 9768SOL    HW131311   4.896   3.812   1.726
 9768SOL    HW231312   4.991   3.740   1.819
 9769SOL     OW31313   0.334   4.215   4.825
 9769SOL    HW131314   0.307   4.298   4.863
 9769SOL    HW231315   0.257   4.186   4.775
 9770SOL     OW31316   0.245   2.655   7.612
 9770SOL    HW131317   0.271   2.741   7.645
 9770SOL    HW231318   0.175   2.627   7.671
 9771SOL     OW31319  10.150   9.121   5.891
 9771SOL    HW131320  10.228   9.109   5.836
 9771SOL    HW231321  10.086   9.160   5.832
 9772SOL     OW31322   1.539   0.136   6.707
 9772SOL    HW131323   1.511   0.207   6.765
 9772SOL    HW231324   1.497   0.058   6.743
 9773SOL     OW31325  10.170   3.632   7.836
 9773SOL    HW131326  10.221   3.600   7.910
 9773SOL    HW231327  10.081   3.602   7.854
 9774SOL     OW31328   7.957   0.134   8.505
 9774SOL    HW131329   7.966   0.105   8.596
 9774SOL    HW231330   7.878   0.188   8.504
 9775SOL     OW31331   7.500   8.554  10.126
 9775SOL    HW131332   7.461   8.587  10.045
 9775SOL    HW231333   7.580   8.510  10.097
 9776SOL     OW31334   4.328   0.818   7.434
 9776SOL    HW131335   4.402   0.878   7.430
 9776SOL    HW231336   4.254   0.869   7.402
 9777SOL     OW31337  10.359   8.468   8.563
 9777SOL    HW131338  10.329   8.558   8.551
 9777SOL    HW231339  10.348   8.427   8.477
 9778SOL     OW31340   1.865   9.623   6.419
 9778SOL    HW131341   1.831   9.581   6.340
 9778SOL    HW231342   1.890   9.550   6.476
 9779SOL     OW31343   3.221   1.017   2.300
 9779SOL    HW131344   3.304   1.032   2.254
 9779SOL    HW231345   3.238   0.940   2.355
 9780SOL     OW31346   1.484   9.649   6.855
 9780SOL    HW131347   1.491   9.738   6.888
 9780SOL    HW231348   1.419   9.654   6.785
 9781SOL     OW31349   0.364  10.611   9.945
 9781SOL    HW131350   0.280  10.653   9.963
 9781SOL    HW231351   0.342  10.542   9.882
 9782SOL     OW31352   0.091   2.109   6.941
 9782SOL    HW131353   0.094   2.204   6.940
 9782SOL    HW231354   0.011   2.087   6.893
 9783SOL     OW31355   3.831   8.900   1.435
 9783SOL    HW131356   3.811   8.962   1.505
 9783SOL    HW231357   3.804   8.815   1.470
 9784SOL     OW31358  10.750   6.157   5.285
 9784SOL    HW131359  10.691   6.231   5.269
 9784SOL    HW231360  10.693   6.080   5.286
 9785SOL     OW31361   3.132   2.638   3.747
 9785SOL    HW131362   3.062   2.623   3.810
 9785SOL    HW231363   3.182   2.556   3.747
 9786SOL     OW31364   1.692   1.605   3.019
 9786SOL    HW131365   1.755   1.554   3.070
 9786SOL    HW231366   1.615   1.549   3.014
 9787SOL     OW31367   5.772   2.544   2.693
 9787SOL    HW131368   5.847   2.497   2.730
 9787SOL    HW231369   5.768   2.626   2.742
 9788SOL     OW31370   8.133   3.050   1.589
 9788SOL    HW131371   8.145   3.110   1.662
 9788SOL    HW231372   8.125   3.106   1.512
 9789SOL     OW31373   2.004   4.659   5.124
 9789SOL    HW131374   2.038   4.725   5.184
 9789SOL    HW231375   2.058   4.581   5.140
 9790SOL     OW31376   1.883   1.825   5.334
 9790SOL    HW131377   1.873   1.891   5.402
 9790SOL    HW231378   1.968   1.845   5.293
 9791SOL     OW31379   9.352   3.584   3.240
 9791SOL    HW131380   9.331   3.625   3.324
 9791SOL    HW231381   9.393   3.653   3.188
 9792SOL     OW31382   5.419   5.831  10.030
 9792SOL    HW131383   5.394   5.868  10.114
 9792SOL    HW231384   5.407   5.736  10.041
 9793SOL     OW31385   9.501   9.442  10.633
 9793SOL    HW131386   9.553   9.367  10.662
 9793SOL    HW231387   9.463   9.478  10.713
 9794SOL     OW31388   1.121  10.476   7.638
 9794SOL    HW131389   1.120  10.571   7.645
 9794SOL    HW231390   1.034  10.454   7.605
 9795SOL     OW31391   2.380   1.270   8.416
 9795SOL    HW131392   2.451   1.232   8.467
 9795SOL    HW231393   2.419   1.346   8.374
 9796SOL     OW31394   3.679   7.206   1.476
 9796SOL    HW131395   3.740   7.155   1.530
 9796SOL    HW231396   3.639   7.268   1.536
 9797SOL     OW31397   1.877   2.226   6.561
 9797SOL    HW131398   1.888   2.321   6.559
 9797SOL    HW231399   1.886   2.202   6.653
 9798SOL     OW31400   4.596   9.317  10.764
 9798SOL    HW131401   4.677   9.362  10.740
 9798SOL    HW231402   4.547   9.310  10.682
 9799SOL     OW31403   7.890   1.997   3.316
 9799SOL    HW131404   7.864   1.910   3.346
 9799SOL    HW231405   7.922   1.983   3.227
 9800SOL     OW31406   4.023  10.765   2.890
 9800SOL    HW131407   4.104  10.801   2.853
 9800SOL    HW231408   4.005  10.820   2.966
 9801SOL     OW31409   2.724   3.725   3.807
 9801SOL    HW131410   2.668   3.791   3.766
 9801SOL    HW231411   2.681   3.704   3.889
 9802SOL     OW31412  10.015   5.479   5.475
 9802SOL    HW131413   9.936   5.427   5.489
 9802SOL    HW231414  10.013   5.501   5.381
 9803SOL     OW31415   0.824   0.136  10.319
 9803SOL    HW131416   0.864   0.067  10.372
 9803SOL    HW231417   0.893   0.164  10.259
 9804SOL     OW31418   5.741   8.092   7.146
 9804SOL    HW131419   5.749   8.137   7.230
 9804SOL    HW231420   5.666   8.033   7.157
 9805SOL     OW31421   9.699   4.732   5.957
 9805SOL    HW131422   9.700   4.750   5.863
 9805SOL    HW231423   9.623   4.675   5.969
 9806SOL     OW31424   6.945  11.061   8.710
 9806SOL    HW131425   7.026  11.013   8.690
 9806SOL    HW231426   6.910  11.018   8.788
 9807SOL     OW31427   2.247   3.885   4.797
 9807SOL    HW131428   2.241   3.791   4.816
 9807SOL    HW231429   2.340   3.905   4.806
 9808SOL     OW31430   4.863   0.914   1.364
 9808SOL    HW131431   4.920   0.944   1.293
 9808SOL    HW231432   4.844   0.993   1.415
 9809SOL     OW31433   4.143   3.472   1.643
 9809SOL    HW131434   4.110   3.452   1.555
 9809SOL    HW231435   4.210   3.405   1.658
 9810SOL     OW31436   2.885   2.544   3.315
 9810SOL    HW131437   2.851   2.536   3.226
 9810SOL    HW231438   2.807   2.542   3.370
 9811SOL     OW31439   9.386   8.412   6.116
 9811SOL    HW131440   9.413   8.489   6.166
 9811SOL    HW231441   9.348   8.448   6.036
 9812SOL     OW31442   4.943   1.998   7.852
 9812SOL    HW131443   5.026   1.959   7.880
 9812SOL    HW231444   4.908   2.039   7.930
 9813SOL     OW31445   5.425  10.812   3.382
 9813SOL    HW131446   5.387  10.900   3.381
 9813SOL    HW231447   5.430  10.789   3.474
 9814SOL     OW31448   5.328   0.685   2.172
 9814SOL    HW131449   5.284   0.752   2.224
 9814SOL    HW231450   5.277   0.605   2.187
 9815SOL     OW31451   8.772   3.553   9.010
 9815SOL    HW131452   8.794   3.463   8.986
 9815SOL    HW231453   8.827   3.572   9.086
 9816SOL     OW31454   4.718   4.710   1.420
 9816SOL    HW131455   4.639   4.703   1.366
 9816SOL    HW231456   4.741   4.802   1.416
 9817SOL     OW31457   4.442   6.926   2.572
 9817SOL    HW131458   4.517   6.983   2.586
 9817SOL    HW231459   4.387   6.939   2.649
 9818SOL     OW31460   3.538  10.878   3.293
 9818SOL    HW131461   3.485  10.891   3.214
 9818SOL    HW231462   3.516  10.790   3.323
 9819SOL     OW31463   6.256   6.108   0.029
 9819SOL    HW131464   6.330   6.138  -0.023
 9819SOL    HW231465   6.226   6.186   0.075
 9820SOL     OW31466   3.550   8.813   9.532
 9820SOL    HW131467   3.622   8.811   9.594
 9820SOL    HW231468   3.585   8.859   9.456
 9821SOL     OW31469   4.397   7.600  10.197
 9821SOL    HW131470   4.449   7.565  10.124
 9821SOL    HW231471   4.445   7.574  10.275
 9822SOL     OW31472   1.727   6.870   4.334
 9822SOL    HW131473   1.812   6.896   4.370
 9822SOL    HW231474   1.740   6.779   4.307
 9823SOL     OW31475   1.661   7.446   7.422
 9823SOL    HW131476   1.706   7.436   7.338
 9823SOL    HW231477   1.695   7.374   7.475
 9824SOL     OW31478   1.139   7.452   8.830
 9824SOL    HW131479   1.116   7.451   8.737
 9824SOL    HW231480   1.060   7.484   8.874
 9825SOL     OW31481  10.362   9.777   0.016
 9825SOL    HW131482  10.404   9.692   0.000
 9825SOL    HW231483  10.398   9.835  -0.050
 9826SOL     OW31484   2.294   9.461   2.380
 9826SOL    HW131485   2.288   9.471   2.285
 9826SOL    HW231486   2.377   9.503   2.403
 9827SOL     OW31487   3.583  10.918   4.341
 9827SOL    HW131488   3.514  10.960   4.392
 9827SOL    HW231489   3.609  10.842   4.393
 9828SOL     OW31490   4.097   8.075   5.252
 9828SOL    HW131491   4.085   8.090   5.345
 9828SOL    HW231492   4.027   8.014   5.228
 9829SOL     OW31493   0.012   4.223   1.852
 9829SOL    HW131494   0.015   4.317   1.866
 9829SOL    HW231495   0.090   4.204   1.800
 9830SOL     OW31496   4.290   2.347   0.041
 9830SOL    HW131497   4.284   2.336   0.136
 9830SOL    HW231498   4.319   2.437   0.029
 9831SOL     OW31499   2.665  11.058   2.446
 9831SOL    HW131500   2.740  11.113   2.467
 9831SOL    HW231501   2.649  11.075   2.353
 9832SOL     OW31502   2.304   1.474   6.821
 9832SOL    HW131503   2.398   1.488   6.811
 9832SOL    HW231504   2.283   1.513   6.906
 9833SOL     OW31505   4.663   3.590   3.006
 9833SOL    HW131506   4.651   3.605   3.099
 9833SOL    HW231507   4.575   3.574   2.972
 9834SOL     OW31508   4.662   7.215   8.432
 9834SOL    HW131509   4.749   7.182   8.455
 9834SOL    HW231510   4.668   7.233   8.338
 9835SOL     OW31511   4.158   4.918   3.526
 9835SOL    HW131512   4.137   4.851   3.591
 9835SOL    HW231513   4.124   4.999   3.563
 9836SOL     OW31514   7.076   5.037   2.116
 9836SOL    HW131515   7.047   5.123   2.086
 9836SOL    HW231516   7.171   5.045   2.124
 9837SOL     OW31517   3.124   0.503   6.577
 9837SOL    HW131518   3.079   0.483   6.659
 9837SOL    HW231519   3.214   0.522   6.603
 9838SOL     OW31520   5.029   4.267   0.820
 9838SOL    HW131521   5.013   4.178   0.852
 9838SOL    HW231522   5.116   4.263   0.780
 9839SOL     OW31523   2.894   4.305   9.677
 9839SOL    HW131524   2.930   4.370   9.737
 9839SOL    HW231525   2.834   4.253   9.731
 9840SOL     OW31526   5.464  11.082  10.242
 9840SOL    HW131527   5.508  11.142  10.302
 9840SOL    HW231528   5.378  11.068  10.281
 9841SOL     OW31529   9.382   1.267   9.583
 9841SOL    HW131530   9.435   1.194   9.616
 9841SOL    HW231531   9.337   1.230   9.507
 9842SOL     OW31532   2.954  10.987   1.916
 9842SOL    HW131533   2.883  11.024   1.863
 9842SOL    HW231534   2.910  10.945   1.990
 9843SOL     OW31535  10.614   9.425   4.678
 9843SOL    HW131536  10.632   9.440   4.770
 9843SOL    HW231537  10.552   9.352   4.677
 9844SOL     OW31538   4.393   4.113   9.393
 9844SOL    HW131539   4.308   4.147   9.421
 9844SOL    HW231540   4.442   4.190   9.364
 9845SOL     OW31541   1.997   7.090   4.186
 9845SOL    HW131542   1.960   7.136   4.261
 9845SOL    HW231543   2.082   7.058   4.217
 9846SOL     OW31544   7.053   1.388   6.889
 9846SOL    HW131545   7.049   1.299   6.852
 9846SOL    HW231546   7.027   1.377   6.980
 9847SOL     OW31547   1.688   1.843   9.028
 9847SOL    HW131548   1.672   1.927   8.986
 9847SOL    HW231549   1.615   1.831   9.088
 9848SOL     OW31550   5.486   7.480   8.954
 9848SOL    HW131551   5.577   7.452   8.962
 9848SOL    HW231552   5.437   7.398   8.945
 9849SOL     OW31553   9.428   7.857   2.697
 9849SOL    HW131554   9.456   7.782   2.750
 9849SOL    HW231555   9.395   7.921   2.760
 9850SOL     OW31556   3.311   2.312   1.877
 9850SOL    HW131557   3.222   2.330   1.846
 9850SOL    HW231558   3.306   2.324   1.972
 9851SOL     OW31559   3.352   2.701   6.640
 9851SOL    HW131560   3.387   2.671   6.724
 9851SOL    HW231561   3.404   2.653   6.575
 9852SOL     OW31562   3.167   5.741   8.565
 9852SOL    HW131563   3.103   5.797   8.521
 9852SOL    HW231564   3.115   5.684   8.621
 9853SOL     OW31565   4.631   3.138  10.962
 9853SOL    HW131566   4.678   3.059  10.936
 9853SOL    HW231567   4.584   3.165  10.883
 9854SOL     OW31568   2.604   2.497   8.627
 9854SOL    HW131569   2.538   2.428   8.625
 9854SOL    HW231570   2.674   2.465   8.570
 9855SOL     OW31571   6.618   2.352   3.854
 9855SOL    HW131572   6.601   2.426   3.912
 9855SOL    HW231573   6.666   2.390   3.780
 9856SOL     OW31574   4.192   2.887   2.783
 9856SOL    HW131575   4.274   2.847   2.754
 9856SOL    HW231576   4.125   2.822   2.762
 9857SOL     OW31577   5.243   8.347   8.361
 9857SOL    HW131578   5.315   8.286   8.379
 9857SOL    HW231579   5.167   8.290   8.346
 9858SOL     OW31580   4.472   7.587   0.918
 9858SOL    HW131581   4.527   7.554   0.846
 9858SOL    HW231582   4.522   7.660   0.955
 9859SOL     OW31583   4.160   2.586   8.896
 9859SOL    HW131584   4.221   2.653   8.925
 9859SOL    HW231585   4.074   2.628   8.899
 9860SOL     OW31586   1.364   0.885   2.990
 9860SOL    HW131587   1.316   0.828   2.929
 9860SOL    HW231588   1.425   0.826   3.034
 9861SOL     OW31589   2.539   0.763   1.435
 9861SOL    HW131590   2.455   0.771   1.390
 9861SOL    HW231591   2.581   0.687   1.394
 9862SOL     OW31592   4.695   3.295   9.595
 9862SOL    HW131593   4.785   3.281   9.565
 9862SOL    HW231594   4.701   3.369   9.654
 9863SOL     OW31595   3.341  10.041   8.845
 9863SOL    HW131596   3.322   9.951   8.871
 9863SOL    HW231597   3.273  10.062   8.781
 9864SOL     OW31598   7.145  10.599   3.346
 9864SOL    HW131599   7.151  10.504   3.347
 9864SOL    HW231600   7.136  10.624   3.438
 9865SOL     OW31601   2.481   3.319   1.657
 9865SOL    HW131602   2.452   3.402   1.619
 9865SOL    HW231603   2.405   3.287   1.706
 9866SOL     OW31604   1.137   9.063   6.724
 9866SOL    HW131605   1.135   9.027   6.635
 9866SOL    HW231606   1.056   9.113   6.731
 9867SOL     OW31607   8.456   0.727  11.051
 9867SOL    HW131608   8.373   0.679  11.045
 9867SOL    HW231609   8.473   0.756  10.961
 9868SOL     OW31610   6.365   0.484   0.957
 9868SOL    HW131611   6.438   0.529   0.914
 9868SOL    HW231612   6.383   0.391   0.942
 9869SOL     OW31613   7.023   9.669   7.715
 9869SOL    HW131614   7.009   9.738   7.779
 9869SOL    HW231615   6.939   9.625   7.708
 9870SOL     OW31616   3.954   9.905   1.987
 9870SOL    HW131617   3.930   9.997   1.976
 9870SOL    HW231618   3.900   9.858   1.923
 9871SOL     OW31619   3.089   2.837   7.915
 9871SOL    HW131620   3.047   2.751   7.923
 9871SOL    HW231621   3.139   2.831   7.833
 9872SOL     OW31622  10.318   4.084  10.264
 9872SOL    HW131623  10.327   4.092  10.169
 9872SOL    HW231624  10.263   4.158  10.289
 9873SOL     OW31625   5.045   3.459   9.337
 9873SOL    HW131626   5.073   3.547   9.361
 9873SOL    HW231627   4.950   3.464   9.334
 9874SOL     OW31628   7.917  10.548   4.586
 9874SOL    HW131629   7.880  10.460   4.593
 9874SOL    HW231630   7.885  10.581   4.502
 9875SOL     OW31631   2.594   3.534   2.810
 9875SOL    HW131632   2.685   3.558   2.829
 9875SOL    HW231633   2.590   3.440   2.828
 9876SOL     OW31634   3.110   9.462   0.655
 9876SOL    HW131635   3.157   9.507   0.724
 9876SOL    HW231636   3.160   9.381   0.641
 9877SOL     OW31637   6.799   0.838   4.810
 9877SOL    HW131638   6.742   0.911   4.835
 9877SOL    HW231639   6.802   0.782   4.887
 9878SOL     OW31640   2.644   2.107   5.417
 9878SOL    HW131641   2.615   2.196   5.397
 9878SOL    HW231642   2.563   2.058   5.432
 9879SOL     OW31643   9.933   5.448   1.357
 9879SOL    HW131644  10.023   5.449   1.323
 9879SOL    HW231645   9.892   5.526   1.320
 9880SOL     OW31646   4.007   3.636   4.673
 9880SOL    HW131647   3.997   3.691   4.595
 9880SOL    HW231648   4.082   3.579   4.653
 9881SOL     OW31649   5.391  10.568   8.968
 9881SOL    HW131650   5.353  10.494   9.016
 9881SOL    HW231651   5.380  10.643   9.026
 9882SOL     OW31652   1.362   4.782   7.654
 9882SOL    HW131653   1.435   4.720   7.658
 9882SOL    HW231654   1.388   4.844   7.586
 9883SOL     OW31655   1.969  10.477   7.547
 9883SOL    HW131656   2.030  10.504   7.478
 9883SOL    HW231657   2.003  10.518   7.626
 9884SOL     OW31658   8.207   2.317   7.262
 9884SOL    HW131659   8.271   2.357   7.203
 9884SOL    HW231660   8.213   2.223   7.244
 9885SOL     OW31661   1.236   4.505   9.642
 9885SOL    HW131662   1.150   4.481   9.608
 9885SOL    HW231663   1.231   4.489   9.736
 9886SOL     OW31664   2.997   8.103   9.164
 9886SOL    HW131665   2.974   8.189   9.198
 9886SOL    HW231666   3.091   8.108   9.148
 9887SOL     OW31667   5.423   4.095   3.283
 9887SOL    HW131668   5.411   4.169   3.342
 9887SOL    HW231669   5.492   4.042   3.324
 9888SOL     OW31670   6.872   2.796   9.784
 9888SOL    HW131671   6.964   2.772   9.770
 9888SOL    HW231672   6.876   2.878   9.832
 9889SOL     OW31673   0.529   4.789   0.563
 9889SOL    HW131674   0.481   4.737   0.498
 9889SOL    HW231675   0.482   4.774   0.645
 9890SOL     OW31676  10.343   7.713   0.362
 9890SOL    HW131677  10.418   7.759   0.400
 9890SOL    HW231678  10.377   7.675   0.281
 9891SOL     OW31679   5.408   7.331   5.904
 9891SOL    HW131680   5.464   7.404   5.878
 9891SOL    HW231681   5.377   7.354   5.991
 9892SOL     OW31682   1.524   9.336   9.728
 9892SOL    HW131683   1.553   9.415   9.772
 9892SOL    HW231684   1.558   9.344   9.639
 9893SOL     OW31685   3.140   4.592   0.222
 9893SOL    HW131686   3.115   4.626   0.307
 9893SOL    HW231687   3.149   4.669   0.166
 9894SOL     OW31688   4.603   7.793   7.420
 9894SOL    HW131689   4.670   7.725   7.431
 9894SOL    HW231690   4.522   7.744   7.407
 9895SOL     OW31691   6.669   4.491  10.292
 9895SOL    HW131692   6.701   4.550  10.360
 9895SOL    HW231693   6.588   4.532  10.261
 9896SOL     OW31694   1.764   6.215   4.974
 9896SOL    HW131695   1.857   6.231   4.958
 9896SOL    HW231696   1.761   6.172   5.059
 9897SOL     OW31697   8.656   0.498   5.914
 9897SOL    HW131698   8.726   0.475   5.975
 9897SOL    HW231699   8.656   0.427   5.850
 9898SOL     OW31700  10.606   4.091   0.169
 9898SOL    HW131701  10.679   4.122   0.222
 9898SOL    HW231702  10.570   4.170   0.129
 9899SOL     OW31703   2.756   0.783   0.790
 9899SOL    HW131704   2.774   0.720   0.860
 9899SOL    HW231705   2.701   0.849   0.830
 9900SOL     OW31706   3.897   2.942   5.300
 9900SOL    HW131707   3.989   2.957   5.321
 9900SOL    HW231708   3.899   2.891   5.218
 9901SOL     OW31709  10.667   3.142   6.168
 9901SOL    HW131710  10.626   3.223   6.197
 9901SOL    HW231711  10.656   3.142   6.073
 9902SOL     OW31712   7.634  10.155   5.767
 9902SOL    HW131713   7.555  10.158   5.713
 9902SOL    HW231714   7.677  10.073   5.742
 9903SOL     OW31715   5.790   2.681   4.002
 9903SOL    HW131716   5.844   2.610   3.966
 9903SOL    HW231717   5.799   2.752   3.939
 9904SOL     OW31718   0.037   5.070   2.002
 9904SOL    HW131719  -0.004   5.140   2.053
 9904SOL    HW231720  -0.030   5.046   1.937
 9905SOL     OW31721  10.571   9.656   5.510
 9905SOL    HW131722  10.512   9.620   5.443
 9905SOL    HW231723  10.613   9.730   5.467
 9906SOL     OW31724   1.908   3.868   5.673
 9906SOL    HW131725   1.861   3.948   5.650
 9906SOL    HW231726   1.845   3.797   5.657
 9907SOL     OW31727   9.639   1.869   1.697
 9907SOL    HW131728   9.673   1.883   1.785
 9907SOL    HW231729   9.716   1.841   1.646
 9908SOL     OW31730   2.100   9.482   0.559
 9908SOL    HW131731   2.121   9.407   0.615
 9908SOL    HW231732   2.075   9.552   0.619
 9909SOL     OW31733   2.503   1.930   0.470
 9909SOL    HW131734   2.560   1.917   0.546
 9909SOL    HW231735   2.536   1.868   0.405
 9910SOL     OW31736   2.848   2.025   6.987
 9910SOL    HW131737   2.927   2.048   6.938
 9910SOL    HW231738   2.797   1.973   6.925
 9911SOL     OW31739   2.793   3.150   8.086
 9911SOL    HW131740   2.808   3.125   7.994
 9911SOL    HW231741   2.841   3.084   8.136
 9912SOL     OW31742   9.119   7.233  10.505
 9912SOL    HW131743   9.121   7.156  10.447
 9912SOL    HW231744   9.137   7.198  10.592
 9913SOL     OW31745   7.748   9.769   9.593
 9913SOL    HW131746   7.765   9.752   9.685
 9913SOL    HW231747   7.663   9.812   9.591
 9914SOL     OW31748   4.839   6.802   2.264
 9914SOL    HW131749   4.913   6.861   2.254
 9914SOL    HW231750   4.762   6.858   2.254
 9915SOL     OW31751   5.030   7.582   2.590
 9915SOL    HW131752   4.978   7.639   2.534
 9915SOL    HW231753   4.982   7.578   2.672
 9916SOL     OW31754   8.925  11.103   2.451
 9916SOL    HW131755   8.868  11.133   2.380
 9916SOL    HW231756   8.947  11.013   2.427
 9917SOL     OW31757   2.193   9.323   1.458
 9917SOL    HW131758   2.266   9.335   1.519
 9917SOL    HW231759   2.174   9.229   1.461
 9918SOL     OW31760   4.172   8.717  10.743
 9918SOL    HW131761   4.096   8.708  10.800
 9918SOL    HW231762   4.176   8.633  10.696
 9919SOL     OW31763   6.633   7.515   4.586
 9919SOL    HW131764   6.610   7.602   4.619
 9919SOL    HW231765   6.723   7.524   4.555
 9920SOL     OW31766   0.851   0.954   7.788
 9920SOL    HW131767   0.761   0.983   7.801
 9920SOL    HW231768   0.855   0.930   7.695
 9921SOL     OW31769   3.269   0.613   3.100
 9921SOL    HW131770   3.325   0.675   3.147
 9921SOL    HW231771   3.330   0.562   3.046
 9922SOL     OW31772   6.947  10.481   1.530
 9922SOL    HW131773   6.920  10.506   1.618
 9922SOL    HW231774   6.886  10.411   1.505
 9923SOL     OW31775   3.821   9.106   0.000
 9923SOL    HW131776   3.862   9.020  -0.010
 9923SOL    HW231777   3.811   9.116   0.095
 9924SOL     OW31778   5.344   2.696   8.762
 9924SOL    HW131779   5.368   2.663   8.675
 9924SOL    HW231780   5.295   2.776   8.744
 9925SOL     OW31781   1.132   5.907   4.393
 9925SOL    HW131782   1.057   5.892   4.450
 9925SOL    HW231783   1.114   5.990   4.350
 9926SOL     OW31784   8.000   3.675   8.039
 9926SOL    HW131785   8.051   3.656   8.117
 9926SOL    HW231786   8.016   3.600   7.981
 9927SOL     OW31787   0.855   9.455   7.724
 9927SOL    HW131788   0.820   9.514   7.657
 9927SOL    HW231789   0.948   9.476   7.728
 9928SOL     OW31790   3.393   2.104   7.238
 9928SOL    HW131791   3.405   2.033   7.301
 9928SOL    HW231792   3.311   2.082   7.192
 9929SOL     OW31793   9.244   9.735  10.944
 9929SOL    HW131794   9.278   9.796  10.878
 9929SOL    HW231795   9.212   9.791  11.014
 9930SOL     OW31796   3.991   1.301   0.050
 9930SOL    HW131797   4.003   1.384   0.096
 9930SOL    HW231798   4.063   1.298  -0.013
 9931SOL     OW31799   7.342   3.056  10.348
 9931SOL    HW131800   7.310   2.972  10.380
 9931SOL    HW231801   7.356   3.108  10.427
 9932SOL     OW31802   7.708   4.944   0.705
 9932SOL    HW131803   7.749   5.027   0.682
 9932SOL    HW231804   7.714   4.940   0.800
 9933SOL     OW31805   6.645   7.479   2.285
 9933SOL    HW131806   6.682   7.406   2.334
 9933SOL    HW231807   6.675   7.557   2.331
 9934SOL     OW31808   7.449   3.054   1.258
 9934SOL    HW131809   7.503   3.057   1.178
 9934SOL    HW231810   7.478   3.129   1.309
 9935SOL     OW31811   3.444   7.340   8.137
 9935SOL    HW131812   3.485   7.357   8.222
 9935SOL    HW231813   3.509   7.287   8.090
 9936SOL     OW31814   0.667  10.164   3.866
 9936SOL    HW131815   0.597  10.224   3.840
 9936SOL    HW231816   0.694  10.122   3.784
 9937SOL     OW31817  10.752   7.149   8.975
 9937SOL    HW131818  10.843   7.177   8.964
 9937SOL    HW231819  10.727   7.183   9.061
 9938SOL     OW31820   3.110  10.291   9.608
 9938SOL    HW131821   3.128  10.385   9.603
 9938SOL    HW231822   3.046  10.275   9.538
 9939SOL     OW31823   2.949   6.955   9.318
 9939SOL    HW131824   2.909   7.010   9.384
 9939SOL    HW231825   2.889   6.960   9.243
 9940SOL     OW31826   4.425  10.097  10.648
 9940SOL    HW131827   4.455  10.187  10.658
 9940SOL    HW231828   4.488  10.058  10.587
 9941SOL     OW31829   5.133   1.790   5.179
 9941SOL    HW131830   5.181   1.738   5.243
 9941SOL    HW231831   5.072   1.841   5.231
 9942SOL     OW31832   1.813   3.129   0.210
 9942SOL    HW131833   1.805   3.090   0.123
 9942SOL    HW231834   1.724   3.129   0.244
 9943SOL     OW31835   0.764   1.354   8.895
 9943SOL    HW131836   0.687   1.357   8.951
 9943SOL    HW231837   0.830   1.404   8.942
 9944SOL     OW31838   5.176  11.106   5.574
 9944SOL    HW131839   5.101  11.066   5.530
 9944SOL    HW231840   5.246  11.041   5.567
 9945SOL     OW31841   3.545   1.873   4.708
 9945SOL    HW131842   3.498   1.884   4.790
 9945SOL    HW231843   3.488   1.816   4.655
 9946SOL     OW31844  10.094   6.144   4.337
 9946SOL    HW131845  10.063   6.069   4.388
 9946SOL    HW231846  10.056   6.220   4.380
 9947SOL     OW31847   5.811   5.724   3.025
 9947SOL    HW131848   5.817   5.638   2.982
 9947SOL    HW231849   5.805   5.704   3.118
 9948SOL     OW31850   6.132   1.898   1.898
 9948SOL    HW131851   6.165   1.865   1.814
 9948SOL    HW231852   6.037   1.889   1.892
 9949SOL     OW31853   7.583   7.661   6.362
 9949SOL    HW131854   7.584   7.717   6.439
 9949SOL    HW231855   7.616   7.576   6.393
 9950SOL     OW31856   3.415   4.568   9.828
 9950SOL    HW131857   3.364   4.627   9.883
 9950SOL    HW231858   3.471   4.520   9.889
 9951SOL     OW31859   6.625   5.035  10.805
 9951SOL    HW131860   6.692   5.009  10.741
 9951SOL    HW231861   6.612   4.957  10.859
 9952SOL     OW31862   1.564   8.229   1.911
 9952SOL    HW131863   1.588   8.289   1.840
 9952SOL    HW231864   1.473   8.207   1.893
 9953SOL     OW31865   2.703  10.262   2.234
 9953SOL    HW131866   2.733  10.293   2.148
 9953SOL    HW231867   2.722  10.334   2.294
 9954SOL     OW31868   1.973   3.753   3.753
 9954SOL    HW131869   1.982   3.789   3.665
 9954SOL    HW231870   2.034   3.679   3.755
 9955SOL     OW31871   3.353   4.247   1.157
 9955SOL    HW131872   3.372   4.194   1.234
 9955SOL    HW231873   3.422   4.313   1.155
 9956SOL     OW31874   1.044   3.106  10.863
 9956SOL    HW131875   1.040   3.098  10.958
 9956SOL    HW231876   1.045   3.200  10.847
 9957SOL     OW31877   3.593  10.608   9.398
 9957SOL    HW131878   3.652  10.678   9.371
 9957SOL    HW231879   3.640  10.527   9.376
 9958SOL     OW31880   5.897  10.498   8.851
 9958SOL    HW131881   5.805  10.505   8.825
 9958SOL    HW231882   5.907  10.407   8.879
 9959SOL     OW31883   3.427   5.829   6.718
 9959SOL    HW131884   3.431   5.779   6.799
 9959SOL    HW231885   3.508   5.805   6.672
 9960SOL     OW31886   3.519   5.665   2.932
 9960SOL    HW131887   3.599   5.717   2.933
 9960SOL    HW231888   3.450   5.726   2.906
 9961SOL     OW31889   5.641   1.904   6.422
 9961SOL    HW131890   5.621   1.845   6.349
 9961SOL    HW231891   5.737   1.911   6.421
 9962SOL     OW31892   8.103   9.742   4.919
 9962SOL    HW131893   8.198   9.742   4.910
 9962SOL    HW231894   8.071   9.777   4.836
 9963SOL     OW31895   9.773   7.212   7.029
 9963SOL    HW131896   9.809   7.123   7.027
 9963SOL    HW231897   9.678   7.199   7.031
 9964SOL     OW31898  10.883   1.182  10.272
 9964SOL    HW131899  10.817   1.250  10.267
 9964SOL    HW231900  10.965   1.226  10.250
 9965SOL     OW31901   9.884   2.336   4.446
 9965SOL    HW131902   9.795   2.363   4.423
 9965SOL    HW231903   9.911   2.280   4.373
 9966SOL     OW31904   9.215   5.208  10.527
 9966SOL    HW131905   9.172   5.165  10.452
 9966SOL    HW231906   9.304   5.171  10.527
 9967SOL     OW31907  10.747  10.862   1.419
 9967SOL    HW131908  10.712  10.836   1.504
 9967SOL    HW231909  10.698  10.941   1.396
 9968SOL     OW31910   1.067   6.337   7.172
 9968SOL    HW131911   1.163   6.344   7.170
 9968SOL    HW231912   1.049   6.246   7.147
 9969SOL     OW31913   1.102   7.366   1.645
 9969SOL    HW131914   1.009   7.346   1.632
 9969SOL    HW231915   1.119   7.343   1.736
 9970SOL     OW31916   0.262   1.367   0.418
 9970SOL    HW131917   0.291   1.442   0.366
 9970SOL    HW231918   0.179   1.395   0.457
 9971SOL     OW31919   1.651   3.621   9.033
 9971SOL    HW131920   1.585   3.590   8.971
 9971SOL    HW231921   1.735   3.599   8.992
 9972SOL     OW31922   2.519   8.529   4.283
 9972SOL    HW131923   2.589   8.471   4.253
 9972SOL    HW231924   2.511   8.594   4.214
 9973SOL     OW31925   3.376   0.244   6.390
 9973SOL    HW131926   3.353   0.259   6.481
 9973SOL    HW231927   3.440   0.173   6.392
 9974SOL     OW31928   1.344   1.737   2.505
 9974SOL    HW131929   1.263   1.686   2.502
 9974SOL    HW231930   1.414   1.672   2.491
 9975SOL     OW31931  10.494  10.399   8.642
 9975SOL    HW131932  10.460  10.354   8.564
 9975SOL    HW231933  10.492  10.331   8.710
 9976SOL     OW31934   7.254   2.415  10.569
 9976SOL    HW131935   7.210   2.336  10.600
 9976SOL    HW231936   7.324   2.382  10.512
 9977SOL     OW31937   5.483   3.033   1.238
 9977SOL    HW131938   5.549   2.987   1.186
 9977SOL    HW231939   5.457   2.970   1.305
 9978SOL     OW31940   0.735   4.978   5.241
 9978SOL    HW131941   0.665   5.043   5.235
 9978SOL    HW231942   0.813   5.029   5.262
 9979SOL     OW31943  10.976   4.425   3.941
 9979SOL    HW131944  11.069   4.447   3.932
 9979SOL    HW231945  10.954   4.450   4.030
 9980SOL     OW31946   9.512   4.338   0.014
 9980SOL    HW131947   9.469   4.393   0.079
 9980SOL    HW231948   9.590   4.387  -0.012
 9981SOL     OW31949   2.117   9.686   9.986
 9981SOL    HW131950   2.054   9.757   9.991
 9981SOL    HW231951   2.193   9.718  10.035
 9982SOL     OW31952   2.023   3.232   5.385
 9982SOL    HW131953   2.041   3.273   5.300
 9982SOL    HW231954   1.986   3.302   5.438
 9983SOL     OW31955   5.021   1.432   7.616
 9983SOL    HW131956   4.980   1.516   7.597
 9983SOL    HW231957   5.035   1.393   7.529
 9984SOL     OW31958   2.850   7.986  10.238
 9984SOL    HW131959   2.861   8.053  10.171
 9984SOL    HW231960   2.756   7.970  10.241
 9985SOL     OW31961   1.932   9.794   0.389
 9985SOL    HW131962   1.869   9.825   0.323
 9985SOL    HW231963   1.958   9.707   0.358
 9986SOL     OW31964   2.489   5.731   1.304
 9986SOL    HW131965   2.507   5.825   1.308
 9986SOL    HW231966   2.541   5.693   1.375
 9987SOL     OW31967   0.558   3.527   3.371
 9987SOL    HW131968   0.606   3.563   3.445
 9987SOL    HW231969   0.501   3.460   3.409
 9988SOL     OW31970   9.386   4.899   4.113
 9988SOL    HW131971   9.327   4.919   4.185
 9988SOL    HW231972   9.344   4.937   4.035
 9989SOL     OW31973   2.290   0.331   0.647
 9989SOL    HW131974   2.240   0.287   0.715
 9989SOL    HW231975   2.342   0.396   0.693
 9990SOL     OW31976   1.855   2.956   4.508
 9990SOL    HW131977   1.831   2.863   4.511
 9990SOL    HW231978   1.883   2.977   4.597
 9991SOL     OW31979   1.389   3.151   6.399
 9991SOL    HW131980   1.368   3.209   6.325
 9991SOL    HW231981   1.328   3.177   6.468
 9992SOL     OW31982   1.491   4.214   0.506
 9992SOL    HW131983   1.412   4.237   0.457
 9992SOL    HW231984   1.559   4.270   0.469
 9993SOL     OW31985   7.005   2.161   5.856
 9993SOL    HW131986   6.922   2.192   5.893
 9993SOL    HW231987   7.040   2.101   5.922
 9994SOL     OW31988   3.106   5.599   2.432
 9994SOL    HW131989   3.151   5.520   2.462
 9994SOL    HW231990   3.066   5.635   2.511
 9995SOL     OW31991   4.509   8.960   0.699
 9995SOL    HW131992   4.432   9.017   0.699
 9995SOL    HW231993   4.555   8.981   0.780
 9996SOL     OW31994  10.785   8.226   6.303
 9996SOL    HW131995  10.749   8.221   6.391
 9996SOL    HW231996  10.761   8.142   6.263
 9997SOL     OW31997   5.154   1.766   1.773
 9997SOL    HW131998   5.119   1.843   1.729
 9997SOL    HW231999   5.248   1.770   1.757
 9998SOL     OW32000   9.086  10.225  10.195
 9998SOL    HW132001   9.069  10.309  10.238
 9998SOL    HW232002   9.001  10.198  10.159
 9999SOL     OW32003   6.572   5.539   8.198
 9999SOL    HW132004   6.622   5.461   8.172
 9999SOL    HW232005   6.487   5.528   8.156
10000SOL     OW32006   6.419   3.033   3.171
10000SOL    HW132007   6.485   2.985   3.121
10000SOL    HW232008   6.444   3.019   3.262
10001SOL     OW32009   4.616   3.343   0.422
10001SOL    HW132010   4.688   3.372   0.366
10001SOL    HW232011   4.650   3.264   0.465
10002SOL     OW32012   1.331   6.370   3.163
10002SOL    HW132013   1.357   6.301   3.102
10002SOL    HW232014   1.366   6.341   3.247
10003SOL     OW32015   2.863   3.947   1.423
10003SOL    HW132016   2.838   3.977   1.510
10003SOL    HW232017   2.781   3.945   1.374
10004SOL     OW32018   1.753   6.255   6.072
10004SOL    HW132019   1.811   6.218   6.138
10004SOL    HW232020   1.769   6.202   5.994
10005SOL     OW32021   7.326   4.664   8.068
10005SOL    HW132022   7.274   4.744   8.062
10005SOL    HW232023   7.400   4.679   8.009
10006SOL     OW32024   6.980   2.746   1.714
10006SOL    HW132025   6.966   2.837   1.738
10006SOL    HW232026   6.952   2.696   1.791
10007SOL     OW32027   8.986   8.868  10.921
10007SOL    HW132028   8.991   8.835  10.831
10007SOL    HW232029   8.894   8.889  10.934
10008SOL     OW32030  10.167   4.151  10.644
10008SOL    HW132031  10.207   4.117  10.724
10008SOL    HW232032  10.182   4.082  10.579
10009SOL     OW32033   2.892   6.079   2.122
10009SOL    HW132034   2.858   6.168   2.130
10009SOL    HW232035   2.957   6.084   2.051
10010SOL     OW32036   7.107   2.174  10.539
10010SOL    HW132037   7.142   2.128  10.462
10010SOL    HW232038   7.030   2.123  10.564
10011SOL     OW32039   7.342   7.420   1.739
10011SOL    HW132040   7.335   7.366   1.817
10011SOL    HW232041   7.432   7.452   1.740
10012SOL     OW32042   5.044   1.542   1.089
10012SOL    HW132043   4.996   1.479   1.035
10012SOL    HW232044   5.128   1.554   1.043
10013SOL     OW32045   4.038   8.326   1.111
10013SOL    HW132046   4.027   8.340   1.017
10013SOL    HW232047   3.949   8.314   1.144
10014SOL     OW32048   6.027   6.220   6.611
10014SOL    HW132049   6.106   6.210   6.557
10014SOL    HW232050   5.976   6.287   6.566
10015SOL     OW32051   1.311   4.593   1.688
10015SOL    HW132052   1.354   4.532   1.628
10015SOL    HW232053   1.383   4.642   1.726
10016SOL     OW32054   4.551   4.150   3.426
10016SOL    HW132055   4.533   4.087   3.496
10016SOL    HW232056   4.600   4.100   3.361
10017SOL     OW32057   6.368   9.179  10.929
10017SOL    HW132058   6.432   9.146  10.866
10017SOL    HW232059   6.417   9.187  11.011
10018SOL     OW32060   1.341   7.744   7.536
10018SOL    HW132061   1.423   7.695   7.527
10018SOL    HW232062   1.356   7.825   7.487
10019SOL     OW32063   8.604   0.492  11.103
10019SOL    HW132064   8.553   0.573  11.106
10019SOL    HW232065   8.692   0.519  11.076
10020SOL     OW32066   6.434   0.370   8.012
10020SOL    HW132067   6.503   0.410   8.064
10020SOL    HW232068   6.377   0.328   8.076
10021SOL     OW32069   3.107   5.279   5.834
10021SOL    HW132070   3.086   5.238   5.918
10021SOL    HW232071   3.052   5.357   5.831
10022SOL     OW32072   3.751   7.333   3.081
10022SOL    HW132073   3.692   7.392   3.034
10022SOL    HW232074   3.734   7.247   3.043
10023SOL     OW32075   1.207   9.608   4.938
10023SOL    HW132076   1.156   9.626   5.016
10023SOL    HW232077   1.210   9.691   4.891
10024SOL     OW32078   2.076   4.250   4.240
10024SOL    HW132079   2.152   4.257   4.297
10024SOL    HW232080   2.066   4.337   4.201
10025SOL     OW32081  10.911   5.231   1.465
10025SOL    HW132082  10.895   5.325   1.469
10025SOL    HW232083  10.889   5.199   1.552
10026SOL     OW32084   1.359   0.186   1.941
10026SOL    HW132085   1.405   0.236   2.008
10026SOL    HW232086   1.376   0.233   1.859
10027SOL     OW32087   5.683   1.070   6.496
10027SOL    HW132088   5.695   1.159   6.529
10027SOL    HW232089   5.701   1.077   6.402
10028SOL     OW32090   2.745   0.562  10.880
10028SOL    HW132091   2.829   0.597  10.850
10028SOL    HW232092   2.733   0.482  10.828
10029SOL     OW32093   7.731   3.232   4.645
10029SOL    HW132094   7.734   3.265   4.555
10029SOL    HW232095   7.802   3.278   4.690
10030SOL     OW32096   4.652   7.191  10.607
10030SOL    HW132097   4.704   7.269  10.589
10030SOL    HW232098   4.645   7.187  10.702
10031SOL     OW32099   6.213   5.713  10.819
10031SOL    HW132100   6.291   5.661  10.800
10031SOL    HW232101   6.223   5.739  10.910
10032SOL     OW32102   4.288   1.793  10.434
10032SOL    HW132103   4.300   1.837  10.518
10032SOL    HW232104   4.369   1.811  10.386
10033SOL     OW32105   9.737   8.037   2.867
10033SOL    HW132106   9.663   8.013   2.922
10033SOL    HW232107   9.809   7.983   2.899
10034SOL     OW32108   1.611   6.492   1.733
10034SOL    HW132109   1.609   6.418   1.794
10034SOL    HW232110   1.698   6.489   1.694
10035SOL     OW32111  10.982   2.774  10.946
10035SOL    HW132112  10.991   2.775  11.041
10035SOL    HW232113  10.896   2.736  10.930
10036SOL     OW32114   2.064   3.790   6.299
10036SOL    HW132115   2.130   3.780   6.230
10036SOL    HW232116   2.083   3.719   6.361
10037SOL     OW32117   3.899   1.851   6.911
10037SOL    HW132118   3.889   1.876   7.002
10037SOL    HW232119   3.850   1.917   6.862
10038SOL     OW32120   6.299  10.290   0.215
10038SOL    HW132121   6.221  10.239   0.192
10038SOL    HW232122   6.372  10.235   0.185
10039SOL     OW32123   5.662   7.810   2.290
10039SOL    HW132124   5.678   7.875   2.222
10039SOL    HW232125   5.569   7.818   2.309
10040SOL     OW32126   8.039   4.592   0.330
10040SOL    HW132127   7.961   4.594   0.384
10040SOL    HW232128   8.060   4.684   0.315
10041SOL     OW32129   5.530   0.546   1.896
10041SOL    HW132130   5.602   0.549   1.959
10041SOL    HW232131   5.452   0.567   1.947
10042SOL     OW32132   9.778   2.341   6.215
10042SOL    HW132133   9.716   2.375   6.279
10042SOL    HW232134   9.732   2.347   6.131
10043SOL     OW32135   9.226   3.556   5.187
10043SOL    HW132136   9.257   3.645   5.201
10043SOL    HW232137   9.237   3.541   5.093
10044SOL     OW32138   2.258   2.567   2.623
10044SOL    HW132139   2.179   2.621   2.623
10044SOL    HW232140   2.330   2.629   2.632
10045SOL     OW32141   3.321   0.579   4.917
10045SOL    HW132142   3.278   0.509   4.967
10045SOL    HW232143   3.257   0.603   4.850
10046SOL     OW32144   5.719   5.057   0.059
10046SOL    HW132145   5.655   5.033   0.126
10046SOL    HW232146   5.777   4.981   0.053
10047SOL     OW32147   1.863   5.204  10.809
10047SOL    HW132148   1.779   5.233  10.773
10047SOL    HW232149   1.927   5.226  10.741
10048SOL     OW32150   3.235   1.404   4.069
10048SOL    HW132151   3.251   1.439   3.981
10048SOL    HW232152   3.226   1.309   4.056
10049SOL     OW32153   3.744   2.834   7.283
10049SOL    HW132154   3.840   2.826   7.282
10049SOL    HW232155   3.713   2.746   7.306
10050SOL     OW32156   4.403   2.886   4.020
10050SOL    HW132157   4.419   2.861   3.928
10050SOL    HW232158   4.313   2.859   4.036
10051SOL     OW32159   6.198   8.823   0.146
10051SOL    HW132160   6.219   8.800   0.056
10051SOL    HW232161   6.267   8.781   0.198
10052SOL     OW32162   6.817  10.321   4.235
10052SOL    HW132163   6.775  10.266   4.301
10052SOL    HW232164   6.761  10.398   4.228
10053SOL     OW32165   0.456   7.518   0.220
10053SOL    HW132166   0.379   7.470   0.251
10053SOL    HW232167   0.432   7.548   0.132
10054SOL     OW32168  10.689   1.239   2.603
10054SOL    HW132169  10.725   1.250   2.691
10054SOL    HW232170  10.729   1.309   2.551
10055SOL     OW32171   2.803   3.748   6.180
10055SOL    HW132172   2.881   3.717   6.134
10055SOL    HW232173   2.732   3.733   6.118
10056SOL     OW32174   4.453   8.611   2.747
10056SOL    HW132175   4.520   8.671   2.714
10056SOL    HW232176   4.490   8.576   2.828
10057SOL     OW32177   2.785   8.670   1.461
10057SOL    HW132178   2.767   8.576   1.457
10057SOL    HW232179   2.851   8.679   1.530
10058SOL     OW32180   5.583   9.538   1.543
10058SOL    HW132181   5.597   9.632   1.546
10058SOL    HW232182   5.568   9.513   1.634
10059SOL     OW32183   3.011   2.183   7.928
10059SOL    HW132184   2.953   2.129   7.982
10059SOL    HW232185   2.952   2.235   7.874
10060SOL     OW32186   1.289  10.821   1.431
10060SOL    HW132187   1.265  10.769   1.508
10060SOL    HW232188   1.206  10.835   1.385
10061SOL     OW32189   1.952   8.326  11.031
10061SOL    HW132190   1.898   8.399  11.001
10061SOL    HW232191   1.921   8.251  10.980
10062SOL     OW32192   8.021   3.314   1.235
10062SOL    HW132193   7.930   3.333   1.257
10062SOL    HW232194   8.072   3.385   1.274
10063SOL     OW32195   5.722   2.340   6.841
10063SOL    HW132196   5.717   2.368   6.932
10063SOL    HW232197   5.777   2.405   6.798
10064SOL     OW32198   9.912   1.132   7.430
10064SOL    HW132199   9.973   1.154   7.500
10064SOL    HW232200   9.965   1.082   7.368
10065SOL     OW32201   6.507  10.736   2.038
10065SOL    HW132202   6.589  10.689   2.051
10065SOL    HW232203   6.492  10.732   1.943
10066SOL     OW32204   4.670   0.453   7.422
10066SOL    HW132205   4.673   0.530   7.366
10066SOL    HW232206   4.577   0.432   7.429
10067SOL     OW32207   1.649   4.390   5.157
10067SOL    HW132208   1.707   4.394   5.081
10067SOL    HW232209   1.569   4.434   5.128
10068SOL     OW32210   7.627   5.914   1.942
10068SOL    HW132211   7.651   5.957   1.860
10068SOL    HW232212   7.629   5.820   1.921
10069SOL     OW32213   2.955   4.588   9.449
10069SOL    HW132214   2.989   4.600   9.360
10069SOL    HW232215   2.989   4.502   9.476
10070SOL     OW32216   6.454   5.414   7.205
10070SOL    HW132217   6.446   5.404   7.110
10070SOL    HW232218   6.365   5.430   7.235
10071SOL     OW32219   4.556   2.756   4.460
10071SOL    HW132220   4.462   2.770   4.473
10071SOL    HW232221   4.587   2.721   4.543
10072SOL     OW32222   0.887   3.164  10.405
10072SOL    HW132223   0.820   3.215  10.359
10072SOL    HW232224   0.919   3.102  10.339
10073SOL     OW32225   6.923   1.175   8.584
10073SOL    HW132226   6.846   1.231   8.584
10073SOL    HW232227   6.993   1.229   8.620
10074SOL     OW32228   9.617   2.961   0.390
10074SOL    HW132229   9.633   2.892   0.455
10074SOL    HW232230   9.580   2.914   0.315
10075SOL     OW32231   4.856   9.320   2.605
10075SOL    HW132232   4.916   9.327   2.531
10075SOL    HW232233   4.850   9.409   2.640
10076SOL     OW32234   8.202   3.388   9.355
10076SOL    HW132235   8.171   3.389   9.264
10076SOL    HW232236   8.207   3.480   9.380
10077SOL     OW32237   4.563   6.083   7.609
10077SOL    HW132238   4.527   6.112   7.525
10077SOL    HW232239   4.645   6.131   7.618
10078SOL     OW32240   2.730   3.547   5.095
10078SOL    HW132241   2.787   3.473   5.073
10078SOL    HW232242   2.667   3.551   5.023
10079SOL     OW32243  10.412   3.912  10.482
10079SOL    HW132244  10.444   3.985  10.428
10079SOL    HW232245  10.434   3.834  10.430
10080SOL     OW32246   2.443   4.064   0.749
10080SOL    HW132247   2.466   4.151   0.718
10080SOL    HW232248   2.519   4.010   0.725
10081SOL     OW32249   3.607   2.589   1.088
10081SOL    HW132250   3.622   2.570   0.995
10081SOL    HW232251   3.519   2.557   1.105
10082SOL     OW32252  10.191   3.209   2.222
10082SOL    HW132253  10.154   3.136   2.272
10082SOL    HW232254  10.246   3.166   2.156
10083SOL     OW32255   9.707   3.260   5.902
10083SOL    HW132256   9.776   3.194   5.898
10083SOL    HW232257   9.657   3.247   5.821
10084SOL     OW32258  10.722   3.658   4.092
10084SOL    HW132259  10.789   3.692   4.032
10084SOL    HW232260  10.723   3.718   4.166
10085SOL     OW32261   4.421   4.778   4.249
10085SOL    HW132262   4.500   4.779   4.304
10085SOL    HW232263   4.454   4.789   4.159
10086SOL     OW32264   6.740   5.552   6.308
10086SOL    HW132265   6.690   5.616   6.358
10086SOL    HW232266   6.748   5.476   6.366
10087SOL     OW32267   3.236   2.762   1.793
10087SOL    HW132268   3.319   2.742   1.836
10087SOL    HW232269   3.244   2.721   1.706
10088SOL     OW32270   7.753   4.436   1.950
10088SOL    HW132271   7.680   4.490   1.980
10088SOL    HW232272   7.736   4.349   1.987
10089SOL     OW32273   5.272   5.418   8.313
10089SOL    HW132274   5.188   5.456   8.287
10089SOL    HW232275   5.313   5.393   8.230
10090SOL     OW32276   1.738   3.689   2.134
10090SOL    HW132277   1.797   3.638   2.189
10090SOL    HW232278   1.795   3.728   2.068
10091SOL     OW32279   5.653   2.335   9.267
10091SOL    HW132280   5.585   2.275   9.235
10091SOL    HW232281   5.695   2.367   9.187
10092SOL     OW32282   2.747   2.629   7.166
10092SOL    HW132283   2.670   2.572   7.162
10092SOL    HW232284   2.715   2.710   7.204
10093SOL     OW32285   5.837   5.988   0.203
10093SOL    HW132286   5.893   6.006   0.127
10093SOL    HW232287   5.815   6.074   0.238
10094SOL     OW32288   9.684   3.794   9.272
10094SOL    HW132289   9.764   3.765   9.227
10094SOL    HW232290   9.697   3.766   9.362
10095SOL     OW32291   1.357   4.189   7.827
10095SOL    HW132292   1.423   4.224   7.766
10095SOL    HW232293   1.377   4.230   7.911
10096SOL     OW32294   7.740   9.935   2.613
10096SOL    HW132295   7.807   9.888   2.663
10096SOL    HW232296   7.696   9.867   2.562
10097SOL     OW32297   5.320   9.818   9.480
10097SOL    HW132298   5.349   9.883   9.543
10097SOL    HW232299   5.395   9.759   9.470
10098SOL     OW32300   2.672   2.983   9.033
10098SOL    HW132301   2.628   2.991   8.948
10098SOL    HW232302   2.743   3.047   9.029
10099SOL     OW32303   8.642   3.187   1.278
10099SOL    HW132304   8.592   3.237   1.342
10099SOL    HW232305   8.635   3.096   1.308
10100SOL     OW32306   9.408   2.336   6.085
10100SOL    HW132307   9.362   2.419   6.077
10100SOL    HW232308   9.496   2.354   6.051
10101SOL     OW32309   4.121   9.670   5.007
10101SOL    HW132310   4.151   9.584   4.977
10101SOL    HW232311   4.199   9.726   5.002
10102SOL     OW32312   2.802   6.849   9.749
10102SOL    HW132313   2.881   6.821   9.796
10102SOL    HW232314   2.774   6.928   9.794
10103SOL     OW32315   5.409   8.749   2.821
10103SOL    HW132316   5.405   8.844   2.810
10103SOL    HW232317   5.409   8.714   2.731
10104SOL     OW32318   5.978   3.467   1.647
10104SOL    HW132319   5.890   3.431   1.659
10104SOL    HW232320   6.003   3.440   1.558
10105SOL     OW32321  10.554   9.748  10.038
10105SOL    HW132322  10.493   9.675  10.028
10105SOL    HW232323  10.616   9.718  10.104
10106SOL     OW32324   1.223   5.452   4.342
10106SOL    HW132325   1.307   5.418   4.372
10106SOL    HW232326   1.236   5.546   4.335
10107SOL     OW32327   1.548  10.046  10.682
10107SOL    HW132328   1.510  10.014  10.763
10107SOL    HW232329   1.517   9.984  10.615
10108SOL     OW32330   4.699  10.105   0.986
10108SOL    HW132331   4.678  10.016   0.957
10108SOL    HW232332   4.643  10.120   1.062
10109SOL     OW32333   0.302   7.799   9.936
10109SOL    HW132334   0.343   7.852   9.867
10109SOL    HW232335   0.253   7.862   9.989
10110SOL     OW32336   2.549   1.200   2.613
10110SOL    HW132337   2.602   1.149   2.674
10110SOL    HW232338   2.584   1.288   2.618
10111SOL     OW32339   2.142   8.025   0.802
10111SOL    HW132340   2.057   8.068   0.809
10111SOL    HW232341   2.121   7.933   0.786
10112SOL     OW32342   9.041   6.041   5.222
10112SOL    HW132343   9.060   6.053   5.315
10112SOL    HW232344   9.035   5.946   5.211
10113SOL     OW32345   2.673   3.355   9.204
10113SOL    HW132346   2.727   3.321   9.132
10113SOL    HW232347   2.735   3.401   9.260
10114SOL     OW32348   8.661   4.947   7.812
10114SOL    HW132349   8.686   4.878   7.749
10114SOL    HW232350   8.565   4.949   7.808
10115SOL     OW32351   2.748   6.501   6.195
10115SOL    HW132352   2.666   6.455   6.176
10115SOL    HW232353   2.795   6.501   6.111
10116SOL     OW32354   8.787   9.923   7.078
10116SOL    HW132355   8.835   9.889   7.153
10116SOL    HW232356   8.840   9.897   7.002
10117SOL     OW32357   7.192   9.520   0.982
10117SOL    HW132358   7.202   9.552   0.892
10117SOL    HW232359   7.280   9.527   1.020
10118SOL     OW32360   2.839   6.499   7.683
10118SOL    HW132361   2.847   6.579   7.734
10118SOL    HW232362   2.858   6.429   7.745
10119SOL     OW32363   1.854   6.094  10.276
10119SOL    HW132364   1.831   6.030  10.344
10119SOL    HW232365   1.814   6.059  10.196
10120SOL     OW32366   7.246   5.467   1.931
10120SOL    HW132367   7.270   5.428   1.846
10120SOL    HW232368   7.292   5.551   1.933
10121SOL     OW32369   1.876   6.281   4.625
10121SOL    HW132370   1.914   6.219   4.563
10121SOL    HW232371   1.797   6.237   4.657
10122SOL     OW32372   8.522   1.396  10.962
10122SOL    HW132373   8.603   1.402  10.911
10122SOL    HW232374   8.459   1.449  10.913
10123SOL     OW32375   3.990   0.026  10.321
10123SOL    HW132376   4.036  -0.051  10.355
10123SOL    HW232377   3.897   0.004  10.330
10124SOL     OW32378  10.624   2.150   4.409
10124SOL    HW132379  10.547   2.109   4.369
10124SOL    HW232380  10.618   2.128   4.502
10125SOL     OW32381   9.829   2.080   1.724
10125SOL    HW132382   9.860   1.991   1.744
10125SOL    HW232383   9.741   2.083   1.761
10126SOL     OW32384   0.469   0.854   1.499
10126SOL    HW132385   0.413   0.779   1.520
10126SOL    HW232386   0.484   0.897   1.583
10127SOL     OW32387   6.189   7.718   7.527
10127SOL    HW132388   6.149   7.805   7.528
10127SOL    HW232389   6.283   7.734   7.527
10128SOL     OW32390   5.238   2.060   8.372
10128SOL    HW132391   5.271   1.971   8.385
10128SOL    HW232392   5.204   2.086   8.457
10129SOL     OW32393   9.224   7.065   8.066
10129SOL    HW132394   9.241   7.012   7.987
10129SOL    HW232395   9.288   7.033   8.130
10130SOL     OW32396   3.834   3.658   6.030
10130SOL    HW132397   3.749   3.690   6.059
10130SOL    HW232398   3.818   3.567   6.004
10131SOL     OW32399   4.929   2.584  10.874
10131SOL    HW132400   4.891   2.535  10.947
10131SOL    HW232401   4.920   2.675  10.899
10132SOL     OW32402   7.791   5.966   1.101
10132SOL    HW132403   7.816   6.014   1.180
10132SOL    HW232404   7.763   5.880   1.133
10133SOL     OW32405   6.857   8.566   2.403
10133SOL    HW132406   6.780   8.512   2.382
10133SOL    HW232407   6.922   8.541   2.337
10134SOL     OW32408  10.275   9.305   1.159
10134SOL    HW132409  10.354   9.302   1.104
10134SOL    HW232410  10.207   9.341   1.102
10135SOL     OW32411   0.576   8.655   9.525
10135SOL    HW132412   0.524   8.584   9.563
10135SOL    HW232413   0.664   8.618   9.517
10136SOL     OW32414   3.030   3.317   0.457
10136SOL    HW132415   3.088   3.295   0.384
10136SOL    HW232416   2.966   3.377   0.419
10137SOL     OW32417   9.340   4.465   8.554
10137SOL    HW132418   9.413   4.462   8.491
10137SOL    HW232419   9.361   4.538   8.612
10138SOL     OW32420   4.054   0.706   2.093
10138SOL    HW132421   4.138   0.672   2.063
10138SOL    HW232422   4.071   0.735   2.182
10139SOL     OW32423   9.975   0.394   4.325
10139SOL    HW132424   9.999   0.301   4.325
10139SOL    HW232425   9.896   0.398   4.378
10140SOL     OW32426   2.584   6.262  10.184
10140SOL    HW132427   2.503   6.210  10.186
10140SOL    HW232428   2.627   6.243  10.267
10141SOL     OW32429   3.306   1.207   9.017
10141SOL    HW132430   3.378   1.179   9.073
10141SOL    HW232431   3.347   1.263   8.951
10142SOL     OW32432   8.611   7.064   0.282
10142SOL    HW132433   8.595   7.018   0.364
10142SOL    HW232434   8.577   7.152   0.296
10143SOL     OW32435   8.787   7.152   1.843
10143SOL    HW132436   8.867   7.185   1.883
10143SOL    HW232437   8.717   7.202   1.884
10144SOL     OW32438   4.722   1.044   8.562
10144SOL    HW132439   4.724   0.968   8.504
10144SOL    HW232440   4.797   1.032   8.620
10145SOL     OW32441   1.335   3.351  10.556
10145SOL    HW132442   1.310   3.272  10.605
10145SOL    HW232443   1.274   3.354  10.482
10146SOL     OW32444   1.445   3.609   8.447
10146SOL    HW132445   1.425   3.702   8.438
10146SOL    HW232446   1.533   3.607   8.485
10147SOL     OW32447   2.568  10.919   7.347
10147SOL    HW132448   2.569  10.850   7.281
10147SOL    HW232449   2.647  10.970   7.329
10148SOL     OW32450  10.246   7.015  10.329
10148SOL    HW132451  10.301   6.937  10.332
10148SOL    HW232452  10.233   7.039  10.420
10149SOL     OW32453   5.369   3.139   1.925
10149SOL    HW132454   5.451   3.145   1.876
10149SOL    HW232455   5.354   3.045   1.935
10150SOL     OW32456   1.830   5.417   6.919
10150SOL    HW132457   1.789   5.361   6.852
10150SOL    HW232458   1.895   5.468   6.871
10151SOL     OW32459   9.015   1.612   3.563
10151SOL    HW132460   8.990   1.694   3.605
10151SOL    HW232461   9.075   1.638   3.493
10152SOL     OW32462   4.825   9.298   5.178
10152SOL    HW132463   4.752   9.273   5.234
10152SOL    HW232464   4.784   9.339   5.102
10153SOL     OW32465   4.785   9.391   4.450
10153SOL    HW132466   4.874   9.410   4.478
10153SOL    HW232467   4.755   9.324   4.511
10154SOL     OW32468   3.308  10.626   6.001
10154SOL    HW132469   3.329  10.537   6.029
10154SOL    HW232470   3.356  10.682   6.062
10155SOL     OW32471   9.064   8.143   1.476
10155SOL    HW132472   9.118   8.105   1.545
10155SOL    HW232473   9.111   8.222   1.450
10156SOL     OW32474   7.422   4.997   6.139
10156SOL    HW132475   7.420   5.066   6.073
10156SOL    HW232476   7.337   4.954   6.132
10157SOL     OW32477   5.282   2.732   0.852
10157SOL    HW132478   5.284   2.801   0.918
10157SOL    HW232479   5.260   2.776   0.770
10158SOL     OW32480   0.827   2.102   1.388
10158SOL    HW132481   0.846   2.185   1.345
10158SOL    HW232482   0.866   2.036   1.330
10159SOL     OW32483   5.428   1.499   7.711
10159SOL    HW132484   5.451   1.441   7.783
10159SOL    HW232485   5.505   1.554   7.699
10160SOL     OW32486   9.102   6.066  10.345
10160SOL    HW132487   9.081   5.998  10.281
10160SOL    HW232488   9.147   6.133  10.294
10161SOL     OW32489   0.117   1.806   8.157
10161SOL    HW132490   0.163   1.758   8.226
10161SOL    HW232491   0.051   1.744   8.125
10162SOL     OW32492   7.262   7.743   9.914
10162SOL    HW132493   7.218   7.788   9.842
10162SOL    HW232494   7.207   7.666   9.931
10163SOL     OW32495   4.209   2.741   0.777
10163SOL    HW132496   4.265   2.664   0.768
10163SOL    HW232497   4.252   2.795   0.843
10164SOL     OW32498   3.951   3.081   6.256
10164SOL    HW132499   3.907   3.002   6.288
10164SOL    HW232500   4.040   3.075   6.291
10165SOL     OW32501   2.974   1.545   5.268
10165SOL    HW132502   2.994   1.550   5.174
10165SOL    HW232503   2.944   1.455   5.281
10166SOL     OW32504   5.973   5.401   1.110
10166SOL    HW132505   5.986   5.347   1.031
10166SOL    HW232506   6.058   5.442   1.126
10167SOL     OW32507   1.278   2.491   5.538
10167SOL    HW132508   1.245   2.551   5.471
10167SOL    HW232509   1.235   2.519   5.618
10168SOL     OW32510   6.154  10.447   6.566
10168SOL    HW132511   6.196  10.363   6.545
10168SOL    HW232512   6.179  10.464   6.657
10169SOL     OW32513   0.354   3.671   3.612
10169SOL    HW132514   0.267   3.666   3.652
10169SOL    HW232515   0.374   3.581   3.586
10170SOL     OW32516   5.170   2.111   8.102
10170SOL    HW132517   5.195   2.084   8.190
10170SOL    HW232518   5.208   2.044   8.044
10171SOL     OW32519   1.020  10.951   1.369
10171SOL    HW132520   0.945  10.950   1.428
10171SOL    HW232521   0.984  10.930   1.283
10172SOL     OW32522   9.675   2.724   3.297
10172SOL    HW132523   9.624   2.758   3.370
10172SOL    HW232524   9.613   2.720   3.224
10173SOL     OW32525   4.941   5.556   5.183
10173SOL    HW132526   5.027   5.570   5.142
10173SOL    HW232527   4.961   5.530   5.273
10174SOL     OW32528   2.922   7.262   1.632
10174SOL    HW132529   2.976   7.264   1.553
10174SOL    HW232530   2.950   7.338   1.682
10175SOL     OW32531   7.327   4.092   2.797
10175SOL    HW132532   7.332   4.004   2.836
10175SOL    HW232533   7.250   4.088   2.740
10176SOL     OW32534   7.853  10.767   8.967
10176SOL    HW132535   7.856  10.806   8.879
10176SOL    HW232536   7.806  10.831   9.020
10177SOL     OW32537   5.779   5.017   1.314
10177SOL    HW132538   5.773   5.112   1.317
10177SOL    HW232539   5.837   4.999   1.239
10178SOL     OW32540   7.886  10.876   9.426
10178SOL    HW132541   7.809  10.833   9.389
10178SOL    HW232542   7.851  10.933   9.494
10179SOL     OW32543   0.402   7.144   0.271
10179SOL    HW132544   0.483   7.179   0.234
10179SOL    HW232545   0.429   7.064   0.316
10180SOL     OW32546   1.225   1.952   7.099
10180SOL    HW132547   1.147   1.941   7.045
10180SOL    HW232548   1.269   2.028   7.062
10181SOL     OW32549   1.908   4.713   0.217
10181SOL    HW132550   1.835   4.709   0.155
10181SOL    HW232551   1.985   4.688   0.165
10182SOL     OW32552   6.444   9.466   0.293
10182SOL    HW132553   6.363   9.436   0.333
10182SOL    HW232554   6.481   9.387   0.254
10183SOL     OW32555   9.438   2.425  10.449
10183SOL    HW132556   9.456   2.400  10.539
10183SOL    HW232557   9.461   2.347  10.398
10184SOL     OW32558   7.547   1.628   5.889
10184SOL    HW132559   7.551   1.547   5.939
10184SOL    HW232560   7.486   1.683   5.937
10185SOL     OW32561   3.938   3.446   0.760
10185SOL    HW132562   3.851   3.448   0.800
10185SOL    HW232563   3.929   3.498   0.680
10186SOL     OW32564   5.564   9.760   6.815
10186SOL    HW132565   5.639   9.739   6.870
10186SOL    HW232566   5.489   9.725   6.862
10187SOL     OW32567   2.469   2.576   7.467
10187SOL    HW132568   2.503   2.576   7.556
10187SOL    HW232569   2.446   2.667   7.449
10188SOL     OW32570   4.189   3.434  10.748
10188SOL    HW132571   4.119   3.486  10.709
10188SOL    HW232572   4.267   3.489  10.741
10189SOL     OW32573   7.012   3.920  10.989
10189SOL    HW132574   6.959   3.922  10.909
10189SOL    HW232575   7.091   3.970  10.967
10190SOL     OW32576   4.734   4.440   7.838
10190SOL    HW132577   4.720   4.382   7.763
10190SOL    HW232578   4.829   4.448   7.844
10191SOL     OW32579   2.508   4.081   6.829
10191SOL    HW132580   2.566   4.011   6.799
10191SOL    HW232581   2.562   4.133   6.888
10192SOL     OW32582   9.858   0.530   3.043
10192SOL    HW132583   9.934   0.510   2.987
10192SOL    HW232584   9.894   0.583   3.113
10193SOL     OW32585   2.460   1.837   2.661
10193SOL    HW132586   2.442   1.756   2.709
10193SOL    HW232587   2.502   1.894   2.724
10194SOL     OW32588   3.256   1.816   9.393
10194SOL    HW132589   3.338   1.845   9.353
10194SOL    HW232590   3.283   1.757   9.463
10195SOL     OW32591   1.745   7.036   9.528
10195SOL    HW132592   1.840   7.040   9.520
10195SOL    HW232593   1.725   6.942   9.529
10196SOL     OW32594   3.824   3.527   7.779
10196SOL    HW132595   3.769   3.475   7.719
10196SOL    HW232596   3.911   3.527   7.738
10197SOL     OW32597   4.112   9.348   5.191
10197SOL    HW132598   4.140   9.402   5.264
10197SOL    HW232599   4.175   9.367   5.121
10198SOL     OW32600   1.965   7.655   2.101
10198SOL    HW132601   2.058   7.636   2.111
10198SOL    HW232602   1.962   7.732   2.044
10199SOL     OW32603   3.368   4.852   5.281
10199SOL    HW132604   3.387   4.869   5.373
10199SOL    HW232605   3.402   4.928   5.234
10200SOL     OW32606   2.486   3.004   7.786
10200SOL    HW132607   2.427   3.002   7.861
10200SOL    HW232608   2.542   2.927   7.797
10201SOL     OW32609   1.455   3.251   1.268
10201SOL    HW132610   1.423   3.274   1.355
10201SOL    HW232611   1.385   3.276   1.208
10202SOL     OW32612   3.310   3.490   4.124
10202SOL    HW132613   3.244   3.437   4.079
10202SOL    HW232614   3.362   3.426   4.173
10203SOL     OW32615   3.922   3.303   5.250
10203SOL    HW132616   3.991   3.359   5.213
10203SOL    HW232617   3.966   3.254   5.320
10204SOL     OW32618   0.296   0.476   0.933
10204SOL    HW132619   0.202   0.494   0.942
10204SOL    HW232620   0.301   0.380   0.933
10205SOL     OW32621   4.727   8.675   4.795
10205SOL    HW132622   4.712   8.769   4.796
10205SOL    HW232623   4.702   8.647   4.706
10206SOL     OW32624   4.651   2.924   0.533
10206SOL    HW132625   4.566   2.965   0.521
10206SOL    HW232626   4.714   2.994   0.519
10207SOL     OW32627   5.002   2.255   5.748
10207SOL    HW132628   5.018   2.328   5.689
10207SOL    HW232629   4.943   2.290   5.814
10208SOL     OW32630   2.734   1.030   5.825
10208SOL    HW132631   2.729   0.942   5.786
10208SOL    HW232632   2.680   1.085   5.768
10209SOL     OW32633   1.999   4.399   4.928
10209SOL    HW132634   2.061   4.439   4.867
10209SOL    HW232635   1.924   4.458   4.929
10210SOL     OW32636   2.752   0.830   5.277
10210SOL    HW132637   2.727   0.738   5.263
10210SOL    HW232638   2.841   0.836   5.241
10211SOL     OW32639   3.716   0.915   8.990
10211SOL    HW132640   3.809   0.891   8.996
10211SOL    HW232641   3.715   1.010   8.996
10212SOL     OW32642   2.546   4.571   5.891
10212SOL    HW132643   2.459   4.594   5.858
10212SOL    HW232644   2.606   4.605   5.825
10213SOL     OW32645   9.874   3.929   0.775
10213SOL    HW132646   9.858   3.948   0.867
10213SOL    HW232647   9.944   3.989   0.749
10214SOL     OW32648   0.689   4.233   6.950
10214SOL    HW132649   0.673   4.146   6.987
10214SOL    HW232650   0.727   4.215   6.864
10215SOL     OW32651   3.291   6.562   2.738
10215SOL    HW132652   3.249   6.481   2.708
10215SOL    HW232653   3.382   6.537   2.755
10216SOL     OW32654   5.432   4.599   4.009
10216SOL    HW132655   5.523   4.622   4.026
10216SOL    HW232656   5.410   4.537   4.078
10217SOL     OW32657   9.952  10.767  10.749
10217SOL    HW132658   9.983  10.677  10.746
10217SOL    HW232659   9.868  10.762  10.795
10218SOL     OW32660   5.656   4.457   5.793
10218SOL    HW132661   5.584   4.506   5.832
10218SOL    HW232662   5.735   4.498   5.828
10219SOL     OW32663   1.434   0.135   3.246
10219SOL    HW132664   1.402   0.110   3.332
10219SOL    HW232665   1.359   0.177   3.203
10220SOL     OW32666  10.935   9.417   2.354
10220SOL    HW132667  11.030   9.411   2.362
10220SOL    HW232668  10.914   9.504   2.386
10221SOL     OW32669   4.301   9.617   8.245
10221SOL    HW132670   4.336   9.582   8.327
10221SOL    HW232671   4.336   9.706   8.239
10222SOL     OW32672   3.562   9.428   8.729
10222SOL    HW132673   3.569   9.332   8.735
10222SOL    HW232674   3.650   9.460   8.749
10223SOL     OW32675   8.204   0.032   4.225
10223SOL    HW132676   8.153  -0.006   4.153
10223SOL    HW232677   8.193   0.126   4.215
10224SOL     OW32678   6.884   1.544   4.201
10224SOL    HW132679   6.858   1.477   4.264
10224SOL    HW232680   6.947   1.500   4.144
10225SOL     OW32681   7.183   0.402   5.813
10225SOL    HW132682   7.267   0.361   5.833
10225SOL    HW232683   7.204   0.472   5.751
10226SOL     OW32684   2.729   6.574   6.658
10226SOL    HW132685   2.754   6.649   6.605
10226SOL    HW232686   2.806   6.556   6.712
10227SOL     OW32687   2.056   6.163   2.766
10227SOL    HW132688   2.015   6.077   2.774
10227SOL    HW232689   2.039   6.189   2.675
10228SOL     OW32690   1.578   3.124   0.357
10228SOL    HW132691   1.543   3.101   0.443
10228SOL    HW232692   1.510   3.097   0.295
10229SOL     OW32693   0.672   1.709   4.062
10229SOL    HW132694   0.722   1.657   4.125
10229SOL    HW232695   0.717   1.793   4.060
10230SOL     OW32696   2.343   1.537   1.382
10230SOL    HW132697   2.355   1.624   1.419
10230SOL    HW232698   2.253   1.536   1.349
10231SOL     OW32699   6.164   8.430   9.139
10231SOL    HW132700   6.177   8.362   9.073
10231SOL    HW232701   6.111   8.388   9.206
10232SOL     OW32702   9.689   3.644   5.502
10232SOL    HW132703   9.704   3.550   5.489
10232SOL    HW232704   9.764   3.686   5.460
10233SOL     OW32705   9.187   2.776   7.372
10233SOL    HW132706   9.220   2.766   7.461
10233SOL    HW232707   9.101   2.734   7.372
10234SOL     OW32708  10.552   3.419   1.668
10234SOL    HW132709  10.522   3.421   1.577
10234SOL    HW232710  10.632   3.366   1.665
10235SOL     OW32711   1.895   2.475   3.959
10235SOL    HW132712   1.962   2.415   3.993
10235SOL    HW232713   1.847   2.505   4.036
10236SOL     OW32714   2.131   5.770   4.075
10236SOL    HW132715   2.162   5.679   4.072
10236SOL    HW232716   2.091   5.779   4.161
10237SOL     OW32717   4.893   0.716   2.249
10237SOL    HW132718   4.893   0.663   2.169
10237SOL    HW232719   4.801   0.720   2.275
10238SOL     OW32720   3.167   3.977   0.772
10238SOL    HW132721   3.173   3.999   0.864
10238SOL    HW232722   3.118   4.049   0.732
10239SOL     OW32723   7.257   2.307   8.755
10239SOL    HW132724   7.232   2.375   8.817
10239SOL    HW232725   7.347   2.328   8.730
10240SOL     OW32726  10.764   6.830   8.104
10240SOL    HW132727  10.715   6.752   8.131
10240SOL    HW232728  10.786   6.814   8.012
10241SOL     OW32729   7.348   2.223   5.388
10241SOL    HW132730   7.269   2.200   5.338
10241SOL    HW232731   7.406   2.148   5.375
10242SOL     OW32732   5.030   2.083   8.586
10242SOL    HW132733   5.110   2.083   8.638
10242SOL    HW232734   4.979   2.009   8.619
10243SOL     OW32735   9.882   2.533   1.648
10243SOL    HW132736   9.932   2.453   1.664
10243SOL    HW232737   9.946   2.603   1.660
10244SOL     OW32738   8.835   5.688   2.958
10244SOL    HW132739   8.809   5.759   3.016
10244SOL    HW232740   8.835   5.610   3.014
10245SOL     OW32741   1.249   3.813   0.337
10245SOL    HW132742   1.165   3.858   0.339
10245SOL    HW232743   1.229   3.728   0.298
10246SOL     OW32744   1.058   9.741   9.841
10246SOL    HW132745   0.996   9.812   9.856
10246SOL    HW232746   1.143   9.784   9.834
10247SOL     OW32747   8.827   3.751   9.589
10247SOL    HW132748   8.919   3.726   9.582
10247SOL    HW232749   8.790   3.728   9.503
10248SOL     OW32750   6.966   8.082   1.122
10248SOL    HW132751   6.902   8.137   1.167
10248SOL    HW232752   7.007   8.140   1.058
10249SOL     OW32753   9.983   0.923   8.994
10249SOL    HW132754  10.053   0.896   8.934
10249SOL    HW232755   9.946   0.841   9.026
10250SOL     OW32756   7.322   5.217   0.184
10250SOL    HW132757   7.402   5.220   0.237
10250SOL    HW232758   7.254   5.251   0.242
10251SOL     OW32759   9.559  10.428   1.336
10251SOL    HW132760   9.638  10.390   1.374
10251SOL    HW232761   9.564  10.405   1.243
10252SOL     OW32762   3.373   9.603  10.550
10252SOL    HW132763   3.358   9.691  10.584
10252SOL    HW232764   3.346   9.608  10.458
10253SOL     OW32765   8.683   4.548   4.523
10253SOL    HW132766   8.625   4.595   4.583
10253SOL    HW232767   8.645   4.460   4.516
10254SOL     OW32768   3.403   7.854   0.938
10254SOL    HW132769   3.416   7.766   0.974
10254SOL    HW232770   3.308   7.863   0.930
10255SOL     OW32771   8.200   1.145   7.746
10255SOL    HW132772   8.127   1.159   7.805
10255SOL    HW232773   8.269   1.109   7.801
10256SOL     OW32774   2.719  10.623   4.862
10256SOL    HW132775   2.803  10.659   4.890
10256SOL    HW232776   2.668  10.616   4.942
10257SOL     OW32777   7.997   2.255   5.429
10257SOL    HW132778   7.944   2.295   5.360
10257SOL    HW232779   8.022   2.170   5.392
10258SOL     OW32780   2.647   5.370   9.016
10258SOL    HW132781   2.699   5.348   8.938
10258SOL    HW232782   2.558   5.342   8.994
10259SOL     OW32783   5.998   0.747   1.252
10259SOL    HW132784   6.066   0.762   1.317
10259SOL    HW232785   5.916   0.769   1.296
10260SOL     OW32786   0.004   4.055   8.703
10260SOL    HW132787  -0.025   4.012   8.622
10260SOL    HW232788   0.007   3.984   8.767
10261SOL     OW32789   6.752   9.804   7.422
10261SOL    HW132790   6.779   9.742   7.354
10261SOL    HW232791   6.674   9.764   7.460
10262SOL     OW32792   6.280   9.609   5.509
10262SOL    HW132793   6.261   9.524   5.548
10262SOL    HW232794   6.314   9.662   5.581
10263SOL     OW32795   2.917   1.212   4.400
10263SOL    HW132796   2.969   1.181   4.474
10263SOL    HW232797   2.943   1.303   4.388
10264SOL     OW32798   9.131   9.082   7.726
10264SOL    HW132799   9.208   9.099   7.671
10264SOL    HW232800   9.059   9.124   7.679
10265SOL     OW32801   4.558   3.943   3.620
10265SOL    HW132802   4.480   3.909   3.663
10265SOL    HW232803   4.631   3.901   3.666
10266SOL     OW32804   5.941   0.354   0.401
10266SOL    HW132805   5.995   0.431   0.415
10266SOL    HW232806   5.901   0.368   0.315
10267SOL     OW32807  10.654   6.374   6.241
10267SOL    HW132808  10.571   6.364   6.287
10267SOL    HW232809  10.630   6.378   6.148
10268SOL     OW32810   0.515   6.650   5.825
10268SOL    HW132811   0.450   6.620   5.888
10268SOL    HW232812   0.511   6.745   5.830
10269SOL     OW32813   2.350   1.370   3.471
10269SOL    HW132814   2.423   1.388   3.530
10269SOL    HW232815   2.339   1.451   3.421
10270SOL     OW32816   9.785  10.998   8.772
10270SOL    HW132817   9.735  11.079   8.763
10270SOL    HW232818   9.876  11.027   8.777
10271SOL     OW32819   4.173   7.732   5.258
10271SOL    HW132820   4.091   7.686   5.275
10271SOL    HW232821   4.211   7.747   5.344
10272SOL     OW32822   2.340   7.275  10.383
10272SOL    HW132823   2.273   7.332  10.421
10272SOL    HW232824   2.413   7.333  10.362
10273SOL     OW32825   5.625   7.191   0.646
10273SOL    HW132826   5.664   7.212   0.561
10273SOL    HW232827   5.531   7.199   0.631
10274SOL     OW32828   4.451   3.382   1.312
10274SOL    HW132829   4.478   3.415   1.397
10274SOL    HW232830   4.517   3.416   1.251
10275SOL     OW32831   8.514   1.807   8.168
10275SOL    HW132832   8.560   1.891   8.166
10275SOL    HW232833   8.421   1.830   8.166
10276SOL     OW32834   2.821   3.536   7.460
10276SOL    HW132835   2.901   3.487   7.479
10276SOL    HW232836   2.806   3.588   7.538
10277SOL     OW32837   8.722   1.527   7.996
10277SOL    HW132838   8.657   1.549   7.930
10277SOL    HW232839   8.680   1.548   8.079
10278SOL     OW32840   4.595   9.472   7.178
10278SOL    HW132841   4.616   9.501   7.089
10278SOL    HW232842   4.660   9.404   7.197
10279SOL     OW32843   5.651   5.408   8.701
10279SOL    HW132844   5.694   5.330   8.664
10279SOL    HW232845   5.624   5.381   8.789
10280SOL     OW32846   3.906   3.722   8.785
10280SOL    HW132847   3.848   3.792   8.814
10280SOL    HW232848   3.849   3.645   8.777
10281SOL     OW32849   9.145   6.982   3.804
10281SOL    HW132850   9.237   6.977   3.830
10281SOL    HW232851   9.100   7.015   3.881
10282SOL     OW32852   7.632   5.635   1.904
10282SOL    HW132853   7.715   5.655   1.947
10282SOL    HW232854   7.630   5.539   1.901
10283SOL     OW32855  10.892   0.622   3.589
10283SOL    HW132856  10.838   0.690   3.628
10283SOL    HW232857  10.966   0.613   3.649
10284SOL     OW32858   4.163   8.539   4.803
10284SOL    HW132859   4.217   8.478   4.854
10284SOL    HW232860   4.213   8.554   4.723
10285SOL     OW32861  10.869   2.367   2.069
10285SOL    HW132862  10.926   2.410   2.132
10285SOL    HW232863  10.781   2.383   2.102
10286SOL     OW32864  10.349   3.299   9.382
10286SOL    HW132865  10.412   3.370   9.370
10286SOL    HW232866  10.367   3.265   9.469
10287SOL     OW32867   3.041   6.194   9.321
10287SOL    HW132868   3.015   6.275   9.277
10287SOL    HW232869   2.977   6.183   9.391
10288SOL     OW32870   4.313   3.781   3.731
10288SOL    HW132871   4.299   3.805   3.822
10288SOL    HW232872   4.324   3.686   3.733
10289SOL     OW32873   1.660   2.221   7.523
10289SOL    HW132874   1.662   2.140   7.575
10289SOL    HW232875   1.742   2.219   7.473
10290SOL     OW32876   3.260   5.687   9.920
10290SOL    HW132877   3.247   5.714   9.829
10290SOL    HW232878   3.303   5.762   9.961
10291SOL     OW32879   0.081   5.335   6.841
10291SOL    HW132880   0.023   5.381   6.780
10291SOL    HW232881   0.167   5.375   6.828
10292SOL     OW32882   4.139   1.987   0.162
10292SOL    HW132883   4.117   1.915   0.103
10292SOL    HW232884   4.106   2.065   0.118
10293SOL     OW32885   8.434   2.994   2.606
10293SOL    HW132886   8.494   2.990   2.681
10293SOL    HW232887   8.348   3.011   2.644
10294SOL     OW32888   4.612  10.362   0.236
10294SOL    HW132889   4.693  10.323   0.268
10294SOL    HW232890   4.553  10.359   0.311
10295SOL     OW32891   3.626   4.564   7.043
10295SOL    HW132892   3.672   4.482   7.027
10295SOL    HW232893   3.694   4.631   7.041
10296SOL     OW32894   5.791   6.636   6.362
10296SOL    HW132895   5.723   6.591   6.312
10296SOL    HW232896   5.837   6.689   6.297
10297SOL     OW32897   3.834   0.902   2.905
10297SOL    HW132898   3.825   0.817   2.862
10297SOL    HW232899   3.921   0.899   2.946
10298SOL     OW32900   2.373   1.632   0.675
10298SOL    HW132901   2.295   1.660   0.723
10298SOL    HW232902   2.413   1.565   0.730
10299SOL     OW32903   4.418   4.294   6.633
10299SOL    HW132904   4.455   4.275   6.546
10299SOL    HW232905   4.387   4.209   6.664
10300SOL     OW32906   2.761   4.832   2.735
10300SOL    HW132907   2.761   4.815   2.829
10300SOL    HW232908   2.776   4.746   2.695
10301SOL     OW32909   1.013   1.488   6.382
10301SOL    HW132910   1.020   1.470   6.288
10301SOL    HW232911   0.928   1.452   6.407
10302SOL     OW32912   3.521   7.348   2.137
10302SOL    HW132913   3.533   7.335   2.231
10302SOL    HW232914   3.430   7.323   2.120
10303SOL     OW32915  10.549   3.887   7.805
10303SOL    HW132916  10.489   3.953   7.837
10303SOL    HW232917  10.494   3.826   7.756
10304SOL     OW32918   8.535   3.193   6.375
10304SOL    HW132919   8.513   3.178   6.283
10304SOL    HW232920   8.559   3.285   6.379
10305SOL     OW32921   9.890   5.723   3.388
10305SOL    HW132922   9.956   5.780   3.348
10305SOL    HW232923   9.884   5.753   3.478
10306SOL     OW32924  10.286   1.934   6.492
10306SOL    HW132925  10.348   2.007   6.497
10306SOL    HW232926  10.204   1.973   6.462
10307SOL     OW32927   6.022   4.341   4.351
10307SOL    HW132928   5.933   4.307   4.344
10307SOL    HW232929   6.022   4.420   4.297
10308SOL     OW32930   3.358   6.164   3.840
10308SOL    HW132931   3.341   6.205   3.925
10308SOL    HW232932   3.286   6.102   3.828
10309SOL     OW32933   6.240   2.170   5.213
10309SOL    HW132934   6.157   2.178   5.260
10309SOL    HW232935   6.300   2.228   5.259
10310SOL     OW32936   0.998   4.378   6.111
10310SOL    HW132937   0.947   4.437   6.166
10310SOL    HW232938   0.938   4.352   6.041
10311SOL     OW32939   6.567   2.418  10.412
10311SOL    HW132940   6.487   2.424  10.359
10311SOL    HW232941   6.536   2.413  10.502
10312SOL     OW32942  10.539  10.873   3.540
10312SOL    HW132943  10.512  10.918   3.460
10312SOL    HW232944  10.464  10.882   3.599
10313SOL     OW32945   6.728   4.681   2.161
10313SOL    HW132946   6.799   4.666   2.224
10313SOL    HW232947   6.649   4.651   2.206
10314SOL     OW32948   3.222   7.966  10.899
10314SOL    HW132949   3.236   8.054  10.933
10314SOL    HW232950   3.220   7.977  10.804
10315SOL     OW32951   5.545   0.314   3.198
10315SOL    HW132952   5.628   0.276   3.227
10315SOL    HW232953   5.571   0.388   3.143
10316SOL     OW32954   8.238   2.794   8.037
10316SOL    HW132955   8.183   2.863   7.999
10316SOL    HW232956   8.322   2.837   8.055
10317SOL     OW32957   8.871   1.050   4.293
10317SOL    HW132958   8.833   1.040   4.205
10317SOL    HW232959   8.962   1.074   4.277
10318SOL     OW32960   2.464  10.415   6.390
10318SOL    HW132961   2.527  10.420   6.318
10318SOL    HW232962   2.380  10.435   6.349
10319SOL     OW32963   3.891  10.895   6.217
10319SOL    HW132964   3.930  10.850   6.292
10319SOL    HW232965   3.910  10.838   6.142
10320SOL     OW32966   5.502   2.999   6.510
10320SOL    HW132967   5.427   3.048   6.476
10320SOL    HW232968   5.539   2.956   6.433
10321SOL     OW32969   0.563  10.096   4.684
10321SOL    HW132970   0.473  10.113   4.656
10321SOL    HW232971   0.616  10.116   4.607
10322SOL     OW32972   0.214   3.627   3.859
10322SOL    HW132973   0.307   3.625   3.880
10322SOL    HW232974   0.175   3.681   3.927
10323SOL     OW32975   4.027   1.113   3.416
10323SOL    HW132976   4.072   1.197   3.427
10323SOL    HW232977   4.097   1.051   3.394
10324SOL     OW32978   0.156   9.943   1.286
10324SOL    HW132979   0.076   9.968   1.332
10324SOL    HW232980   0.198  10.026   1.263
10325SOL     OW32981   5.481   4.248   5.394
10325SOL    HW132982   5.426   4.296   5.332
10325SOL    HW232983   5.456   4.156   5.382
10326SOL     OW32984   5.758   1.125   7.953
10326SOL    HW132985   5.794   1.081   7.876
10326SOL    HW232986   5.732   1.211   7.921
10327SOL     OW32987  10.292  10.435   6.856
10327SOL    HW132988  10.275  10.377   6.782
10327SOL    HW232989  10.361  10.494   6.825
10328SOL     OW32990   8.117   7.961   5.516
10328SOL    HW132991   8.187   7.925   5.570
10328SOL    HW232992   8.128   7.918   5.431
10329SOL     OW32993   9.282   5.843   7.840
10329SOL    HW132994   9.296   5.838   7.934
10329SOL    HW232995   9.199   5.797   7.825
10330SOL     OW32996   5.029   2.013   5.635
10330SOL    HW132997   4.970   2.025   5.560
10330SOL    HW232998   5.032   2.098   5.677
10331SOL     OW32999   4.216   4.104   2.420
10331SOL    HW133000   4.159   4.172   2.455
10331SOL    HW233001   4.176   4.081   2.336
10332SOL     OW33002   8.939   6.560   3.298
10332SOL    HW133003   8.852   6.548   3.335
10332SOL    HW233004   8.959   6.652   3.313
10333SOL     OW33005   5.086   6.895   9.480
10333SOL    HW133006   5.179   6.896   9.455
10333SOL    HW233007   5.084   6.848   9.563
10334SOL     OW33008   3.401   7.035   2.098
10334SOL    HW133009   3.350   6.985   2.162
10334SOL    HW233010   3.340   7.101   2.065
10335SOL     OW33011   6.194   5.829   7.274
10335SOL    HW133012   6.115   5.833   7.328
10335SOL    HW233013   6.165   5.856   7.187
10336SOL     OW33014   0.886   5.808   3.718
10336SOL    HW133015   0.852   5.725   3.684
10336SOL    HW233016   0.947   5.838   3.650
10337SOL     OW33017   7.958  11.016   7.122
10337SOL    HW133018   7.895  11.084   7.146
10337SOL    HW233019   7.930  10.987   7.035
10338SOL     OW33020   0.806   7.181   1.878
10338SOL    HW133021   0.893   7.174   1.839
10338SOL    HW233022   0.749   7.134   1.817
10339SOL     OW33023   6.508   6.586   0.170
10339SOL    HW133024   6.562   6.657   0.205
10339SOL    HW233025   6.442   6.570   0.238
10340SOL     OW33026   4.121   2.316   1.277
10340SOL    HW133027   4.125   2.267   1.359
10340SOL    HW233028   4.040   2.365   1.283
10341SOL     OW33029   2.993   1.492   0.149
10341SOL    HW133030   2.952   1.424   0.203
10341SOL    HW233031   3.031   1.553   0.212
10342SOL     OW33032   8.294   9.399   1.212
10342SOL    HW133033   8.299   9.388   1.307
10342SOL    HW233034   8.332   9.485   1.196
10343SOL     OW33035   7.968   2.464   9.102
10343SOL    HW133036   8.013   2.547   9.116
10343SOL    HW233037   7.910   2.455   9.177
10344SOL     OW33038   9.706   5.089   2.948
10344SOL    HW133039   9.611   5.079   2.939
10344SOL    HW233040   9.723   5.073   3.041
10345SOL     OW33041   7.237   5.409   2.236
10345SOL    HW133042   7.241   5.437   2.144
10345SOL    HW233043   7.146   5.424   2.262
10346SOL     OW33044   3.358   4.245   9.573
10346SOL    HW133045   3.275   4.268   9.614
10346SOL    HW233046   3.365   4.303   9.497
10347SOL     OW33047   1.703   2.894   2.386
10347SOL    HW133048   1.609   2.908   2.397
10347SOL    HW233049   1.709   2.830   2.315
10348SOL     OW33050   4.069   9.619   7.470
10348SOL    HW133051   4.035   9.707   7.483
10348SOL    HW233052   3.999   9.572   7.425
10349SOL     OW33053   3.346   6.061   7.707
10349SOL    HW133054   3.396   6.010   7.643
10349SOL    HW233055   3.405   6.131   7.734
10350SOL     OW33056   9.919   3.749   2.252
10350SOL    HW133057  10.012   3.756   2.273
10350SOL    HW233058   9.886   3.838   2.258
10351SOL     OW33059   7.886   6.619   3.632
10351SOL    HW133060   7.849   6.707   3.628
10351SOL    HW233061   7.833   6.568   3.571
10352SOL     OW33062   3.183   2.076   2.474
10352SOL    HW133063   3.274   2.104   2.460
10352SOL    HW233064   3.171   2.002   2.414
10353SOL     OW33065   3.391   8.388   0.319
10353SOL    HW133066   3.459   8.347   0.264
10353SOL    HW233067   3.436   8.412   0.400
10354SOL     OW33068   8.029   7.141   4.521
10354SOL    HW133069   8.025   7.122   4.427
10354SOL    HW233070   7.940   7.126   4.552
10355SOL     OW33071   3.712   8.117   7.473
10355SOL    HW133072   3.735   8.065   7.550
10355SOL    HW233073   3.617   8.109   7.466
10356SOL     OW33074  11.067   7.475  10.446
10356SOL    HW133075  11.006   7.475  10.520
10356SOL    HW233076  11.137   7.415  10.472
10357SOL     OW33077   4.518   1.654   7.451
10357SOL    HW133078   4.491   1.723   7.390
10357SOL    HW233079   4.436   1.622   7.489
10358SOL     OW33080   7.921   2.414   4.659
10358SOL    HW133081   8.007   2.453   4.675
10358SOL    HW233082   7.902   2.435   4.567
10359SOL     OW33083   1.712   6.115   1.408
10359SOL    HW133084   1.699   6.029   1.367
10359SOL    HW233085   1.806   6.117   1.429
10360SOL     OW33086   4.403   1.391   9.658
10360SOL    HW133087   4.419   1.307   9.614
10360SOL    HW233088   4.324   1.425   9.616
10361SOL     OW33089   7.237   2.224   7.698
10361SOL    HW133090   7.297   2.153   7.721
10361SOL    HW233091   7.198   2.195   7.615
10362SOL     OW33092   4.578   2.962   5.079
10362SOL    HW133093   4.599   3.024   5.009
10362SOL    HW233094   4.538   3.015   5.147
10363SOL     OW33095   8.403   1.747   5.599
10363SOL    HW133096   8.419   1.661   5.559
10363SOL    HW233097   8.309   1.761   5.589
10364SOL     OW33098   2.860   0.513   1.688
10364SOL    HW133099   2.862   0.594   1.739
10364SOL    HW233100   2.771   0.479   1.700
10365SOL     OW33101   8.073   6.305   9.244
10365SOL    HW133102   8.141   6.238   9.231
10365SOL    HW233103   8.097   6.348   9.326
10366SOL     OW33104   6.321   7.483   7.230
10366SOL    HW133105   6.399   7.515   7.276
10366SOL    HW233106   6.316   7.390   7.253
10367SOL     OW33107   0.627   3.424   9.407
10367SOL    HW133108   0.668   3.496   9.454
10367SOL    HW233109   0.641   3.348   9.463
10368SOL     OW33110   9.105  10.574   3.725
10368SOL    HW133111   9.089  10.480   3.735
10368SOL    HW233112   9.076  10.594   3.636
10369SOL     OW33113   2.989   8.770   2.788
10369SOL    HW133114   3.072   8.817   2.783
10369SOL    HW233115   3.014   8.677   2.783
10370SOL     OW33116   0.856   7.936   4.474
10370SOL    HW133117   0.907   7.858   4.450
10370SOL    HW233118   0.875   7.949   4.566
10371SOL     OW33119   1.798   3.315  10.268
10371SOL    HW133120   1.728   3.262  10.307
10371SOL    HW233121   1.873   3.255  10.262
10372SOL     OW33122   2.930   2.343   5.413
10372SOL    HW133123   2.964   2.377   5.330
10372SOL    HW233124   2.838   2.370   5.414
10373SOL     OW33125   3.839   0.918   3.912
10373SOL    HW133126   3.761   0.916   3.856
10373SOL    HW233127   3.913   0.913   3.850
10374SOL     OW33128   1.227   3.425   1.626
10374SOL    HW133129   1.168   3.483   1.578
10374SOL    HW233130   1.242   3.469   1.709
10375SOL     OW33131   7.673   6.015   8.331
10375SOL    HW133132   7.624   5.933   8.341
10375SOL    HW233133   7.615   6.082   8.367
10376SOL     OW33134   3.291   4.280  10.083
10376SOL    HW133135   3.371   4.227  10.080
10376SOL    HW233136   3.322   4.368  10.103
10377SOL     OW33137   7.436   2.536   5.785
10377SOL    HW133138   7.447   2.446   5.816
10377SOL    HW233139   7.425   2.527   5.690
10378SOL     OW33140  10.924   5.100   7.600
10378SOL    HW133141  10.897   5.169   7.660
10378SOL    HW233142  11.020   5.098   7.606
10379SOL     OW33143   6.129   6.914   2.789
10379SOL    HW133144   6.105   6.912   2.881
10379SOL    HW233145   6.112   7.004   2.762
10380SOL     OW33146   7.799   9.910   5.715
10380SOL    HW133147   7.771   9.819   5.700
10380SOL    HW233148   7.833   9.910   5.804
10381SOL     OW33149   1.716   4.918   0.291
10381SOL    HW133150   1.782   4.848   0.286
10381SOL    HW233151   1.692   4.934   0.199
10382SOL     OW33152   7.108   9.659   2.796
10382SOL    HW133153   7.168   9.597   2.753
10382SOL    HW233154   7.049   9.687   2.726
10383SOL     OW33155   6.170   2.825   5.280
10383SOL    HW133156   6.085   2.787   5.301
10383SOL    HW233157   6.163   2.916   5.307
10384SOL     OW33158   1.547   1.206  11.037
10384SOL    HW133159   1.560   1.185  11.129
10384SOL    HW233160   1.454   1.227  11.030
10385SOL     OW33161   0.617   1.962   2.950
10385SOL    HW133162   0.555   2.035   2.949
10385SOL    HW233163   0.572   1.891   2.903
10386SOL     OW33164   5.028   0.014   1.594
10386SOL    HW133165   4.956   0.071   1.621
10386SOL    HW233166   5.052   0.045   1.506
10387SOL     OW33167   4.416   4.611   7.101
10387SOL    HW133168   4.330   4.652   7.099
10387SOL    HW233169   4.425   4.576   7.189
10388SOL     OW33170   2.717   5.855   4.502
10388SOL    HW133171   2.769   5.912   4.558
10388SOL    HW233172   2.754   5.768   4.516
10389SOL     OW33173   0.724   8.046   2.394
10389SOL    HW133174   0.789   7.976   2.385
10389SOL    HW233175   0.640   8.000   2.396
10390SOL     OW33176   1.808   8.150   6.005
10390SOL    HW133177   1.817   8.129   5.912
10390SOL    HW233178   1.779   8.068   6.045
10391SOL     OW33179   0.241   0.655   2.328
10391SOL    HW133180   0.286   0.570   2.329
10391SOL    HW233181   0.305   0.716   2.291
10392SOL     OW33182   3.184  10.884   1.808
10392SOL    HW133183   3.104  10.911   1.852
10392SOL    HW233184   3.239  10.962   1.808
10393SOL     OW33185   4.364   8.140   9.910
10393SOL    HW133186   4.308   8.172   9.981
10393SOL    HW233187   4.312   8.072   9.867
10394SOL     OW33188   2.224   6.912   5.738
10394SOL    HW133189   2.271   6.919   5.655
10394SOL    HW233190   2.145   6.862   5.716
10395SOL     OW33191  10.412   9.843   8.692
10395SOL    HW133192  10.375   9.755   8.706
10395SOL    HW233193  10.507   9.829   8.694
10396SOL     OW33194   6.032   8.338   3.651
10396SOL    HW133195   5.958   8.353   3.592
10396SOL    HW233196   6.086   8.416   3.642
10397SOL     OW33197   4.273   2.926   3.642
10397SOL    HW133198   4.345   2.878   3.684
10397SOL    HW233199   4.292   2.920   3.548
10398SOL     OW33200   7.952   5.281  10.240
10398SOL    HW133201   7.955   5.330  10.158
10398SOL    HW233202   7.897   5.333  10.297
10399SOL     OW33203   1.389   8.884  10.577
10399SOL    HW133204   1.318   8.820  10.571
10399SOL    HW233205   1.440   8.856  10.653
10400SOL     OW33206  10.348   0.244   5.735
10400SOL    HW133207  10.338   0.150   5.719
10400SOL    HW233208  10.441   0.262   5.718
10401SOL     OW33209  11.081   0.682   3.868
10401SOL    HW133210  11.121   0.763   3.897
10401SOL    HW233211  10.988   0.691   3.890
10402SOL     OW33212   3.257   2.789   7.298
10402SOL    HW133213   3.168   2.774   7.330
10402SOL    HW233214   3.260   2.882   7.276
10403SOL     OW33215   1.166  10.002   8.115
10403SOL    HW133216   1.196  10.092   8.122
10403SOL    HW233217   1.213   9.955   8.184
10404SOL     OW33218   3.927   5.009   4.892
10404SOL    HW133219   3.868   4.935   4.907
10404SOL    HW233220   3.874   5.073   4.845
10405SOL     OW33221   4.297   2.530   3.640
10405SOL    HW133222   4.328   2.504   3.726
10405SOL    HW233223   4.377   2.543   3.589
10406SOL     OW33224   4.464   3.469   1.900
10406SOL    HW133225   4.480   3.513   1.983
10406SOL    HW233226   4.526   3.509   1.839
10407SOL     OW33227   7.585   9.622   9.293
10407SOL    HW133228   7.511   9.683   9.294
10407SOL    HW233229   7.660   9.674   9.322
10408SOL     OW33230   3.273   1.681   7.259
10408SOL    HW133231   3.331   1.728   7.318
10408SOL    HW233232   3.245   1.746   7.195
10409SOL     OW33233   4.477   5.055   8.557
10409SOL    HW133234   4.490   5.145   8.586
10409SOL    HW233235   4.491   5.001   8.635
10410SOL     OW33236   1.584   9.108   2.537
10410SOL    HW133237   1.652   9.157   2.491
10410SOL    HW233238   1.502   9.144   2.504
10411SOL     OW33239   1.412   4.065   9.206
10411SOL    HW133240   1.427   4.150   9.246
10411SOL    HW233241   1.404   4.005   9.280
10412SOL     OW33242   4.561  11.016   0.656
10412SOL    HW133243   4.639  10.963   0.672
10412SOL    HW233244   4.504  10.999   0.731
10413SOL     OW33245   8.784  10.519   2.952
10413SOL    HW133246   8.852  10.547   2.890
10413SOL    HW233247   8.702  10.551   2.913
10414SOL     OW33248   4.466  10.831   2.201
10414SOL    HW133249   4.379  10.797   2.181
10414SOL    HW233250   4.511  10.833   2.116
10415SOL     OW33251   2.424   3.449   0.492
10415SOL    HW133252   2.381   3.466   0.576
10415SOL    HW233253   2.368   3.490   0.427
10416SOL     OW33254   1.335   1.262   0.407
10416SOL    HW133255   1.422   1.301   0.401
10416SOL    HW233256   1.323   1.243   0.500
10417SOL     OW33257   8.923   9.922   4.991
10417SOL    HW133258   8.878   9.986   5.046
10417SOL    HW233259   8.917   9.958   4.902
10418SOL     OW33260   8.359  10.117   8.180
10418SOL    HW133261   8.416  10.056   8.133
10418SOL    HW233262   8.321  10.064   8.250
10419SOL     OW33263   2.326   5.674   5.851
10419SOL    HW133264   2.407   5.705   5.891
10419SOL    HW233265   2.272   5.646   5.925
10420SOL     OW33266   7.329   9.467   9.018
10420SOL    HW133267   7.300   9.416   8.942
10420SOL    HW233268   7.376   9.404   9.072
10421SOL     OW33269   7.672   6.048   4.896
10421SOL    HW133270   7.755   6.047   4.944
10421SOL    HW233271   7.643   6.139   4.899
10422SOL     OW33272   9.729   4.143   1.622
10422SOL    HW133273   9.760   4.054   1.604
10422SOL    HW233274   9.661   4.158   1.556
10423SOL     OW33275   8.274   6.022   7.085
10423SOL    HW133276   8.201   6.055   7.138
10423SOL    HW233277   8.240   6.021   6.995
10424SOL     OW33278   4.261   2.562  10.062
10424SOL    HW133279   4.216   2.533   9.982
10424SOL    HW233280   4.333   2.500  10.072
10425SOL     OW33281   4.461   1.226   4.024
10425SOL    HW133282   4.394   1.293   4.036
10425SOL    HW233283   4.419   1.145   4.053
10426SOL     OW33284   6.028   1.459   5.857
10426SOL    HW133285   6.086   1.515   5.805
10426SOL    HW233286   5.978   1.520   5.911
10427SOL     OW33287   5.768   8.724   6.850
10427SOL    HW133288   5.782   8.703   6.757
10427SOL    HW233289   5.767   8.819   6.853
10428SOL     OW33290   0.623   9.752   6.557
10428SOL    HW133291   0.718   9.737   6.558
10428SOL    HW233292   0.586   9.666   6.577
10429SOL     OW33293   8.153  10.300   5.721
10429SOL    HW133294   8.219  10.275   5.785
10429SOL    HW233295   8.074  10.254   5.749
10430SOL     OW33296   8.221   5.417   2.862
10430SOL    HW133297   8.201   5.411   2.955
10430SOL    HW233298   8.248   5.328   2.838
10431SOL     OW33299   4.621   3.779   7.443
10431SOL    HW133300   4.713   3.752   7.451
10431SOL    HW233301   4.590   3.735   7.364
10432SOL     OW33302   7.249   6.210   4.952
10432SOL    HW133303   7.318   6.196   4.886
10432SOL    HW233304   7.174   6.160   4.918
10433SOL     OW33305   2.584   5.112   3.418
10433SOL    HW133306   2.515   5.159   3.464
10433SOL    HW233307   2.625   5.057   3.485
10434SOL     OW33308   1.853   2.162   5.186
10434SOL    HW133309   1.804   2.169   5.268
10434SOL    HW233310   1.911   2.087   5.199
10435SOL     OW33311   2.342   6.852   6.283
10435SOL    HW133312   2.331   6.836   6.189
10435SOL    HW233313   2.415   6.794   6.308
10436SOL     OW33314   2.081   4.944   4.550
10436SOL    HW133315   2.142   4.977   4.616
10436SOL    HW233316   2.035   4.872   4.594
10437SOL     OW33317   1.027   6.396   1.223
10437SOL    HW133318   0.943   6.356   1.245
10437SOL    HW233319   1.090   6.351   1.279
10438SOL     OW33320   3.455   3.813   6.277
10438SOL    HW133321   3.370   3.841   6.244
10438SOL    HW233322   3.435   3.763   6.356
10439SOL     OW33323   0.958   5.685   1.912
10439SOL    HW133324   0.868   5.683   1.944
10439SOL    HW233325   1.011   5.701   1.990
10440SOL     OW33326   1.477   6.356   4.342
10440SOL    HW133327   1.397   6.408   4.344
10440SOL    HW233328   1.509   6.364   4.252
10441SOL     OW33329   6.691   5.450   3.505
10441SOL    HW133330   6.714   5.540   3.482
10441SOL    HW233331   6.642   5.458   3.586
10442SOL     OW33332   3.264  11.041   8.433
10442SOL    HW133333   3.209  11.075   8.503
10442SOL    HW233334   3.332  11.107   8.422
10443SOL     OW33335   7.965   3.004   4.502
10443SOL    HW133336   7.915   3.084   4.488
10443SOL    HW233337   8.053   3.034   4.526
10444SOL     OW33338   4.652   2.207   5.012
10444SOL    HW133339   4.600   2.279   5.047
10444SOL    HW233340   4.590   2.155   4.961
10445SOL     OW33341   4.017   4.010   9.801
10445SOL    HW133342   3.936   4.026   9.753
10445SOL    HW233343   4.008   4.062   9.881
10446SOL     OW33344   7.269   3.267   1.612
10446SOL    HW133345   7.252   3.230   1.698
10446SOL    HW233346   7.348   3.319   1.623
10447SOL     OW33347   3.920   3.414   3.701
10447SOL    HW133348   3.888   3.359   3.773
10447SOL    HW233349   3.918   3.356   3.624
10448SOL     OW33350   3.060   1.637   2.369
10448SOL    HW133351   3.090   1.623   2.459
10448SOL    HW233352   3.043   1.549   2.335
10449SOL     OW33353   2.423   9.814   5.842
10449SOL    HW133354   2.519   9.809   5.846
10449SOL    HW233355   2.403   9.906   5.859
10450SOL     OW33356   3.704   4.365   4.116
10450SOL    HW133357   3.697   4.276   4.152
10450SOL    HW233358   3.798   4.385   4.118
10451SOL     OW33359   3.435   6.040   3.066
10451SOL    HW133360   3.424   6.134   3.052
10451SOL    HW233361   3.357   6.000   3.028
10452SOL     OW33362   1.150   9.400   5.239
10452SOL    HW133363   1.177   9.460   5.308
10452SOL    HW233364   1.098   9.454   5.179
10453SOL     OW33365   2.095   3.053   5.571
10453SOL    HW133366   2.078   3.131   5.518
10453SOL    HW233367   2.055   2.981   5.521
10454SOL     OW33368   4.338   6.016   1.199
10454SOL    HW133369   4.381   5.934   1.172
10454SOL    HW233370   4.366   6.028   1.289
10455SOL     OW33371  10.100   8.237   7.853
10455SOL    HW133372  10.127   8.294   7.781
10455SOL    HW233373  10.181   8.194   7.881
10456SOL     OW33374   7.742   8.722   4.884
10456SOL    HW133375   7.808   8.665   4.844
10456SOL    HW233376   7.659   8.682   4.859
10457SOL     OW33377   6.388   5.020  10.020
10457SOL    HW133378   6.480   5.012  10.046
10457SOL    HW233379   6.383   5.104   9.975
10458SOL     OW33380   3.342   3.905   2.972
10458SOL    HW133381   3.351   3.821   2.927
10458SOL    HW233382   3.299   3.962   2.908
10459SOL     OW33383   9.024   4.139   4.247
10459SOL    HW133384   9.102   4.117   4.298
10459SOL    HW233385   8.989   4.217   4.288
10460SOL     OW33386   6.269   8.210   2.733
10460SOL    HW133387   6.245   8.296   2.700
10460SOL    HW233388   6.190   8.157   2.721
10461SOL     OW33389   4.720   2.902   8.250
10461SOL    HW133390   4.748   2.920   8.340
10461SOL    HW233391   4.769   2.964   8.196
10462SOL     OW33392   6.469  10.510   6.905
10462SOL    HW133393   6.518  10.435   6.937
10462SOL    HW233394   6.494  10.582   6.963
10463SOL     OW33395   5.877   3.342   0.483
10463SOL    HW133396   5.905   3.378   0.567
10463SOL    HW233397   5.815   3.273   0.506
10464SOL     OW33398   7.457   6.877   7.307
10464SOL    HW133399   7.467   6.784   7.327
10464SOL    HW233400   7.508   6.922   7.374
10465SOL     OW33401   1.190   3.731   7.495
10465SOL    HW133402   1.204   3.649   7.542
10465SOL    HW233403   1.278   3.756   7.465
10466SOL     OW33404   8.988   9.203   3.802
10466SOL    HW133405   8.976   9.111   3.826
10466SOL    HW233406   8.953   9.209   3.713
10467SOL     OW33407   4.993   5.196   1.705
10467SOL    HW133408   4.918   5.191   1.645
10467SOL    HW233409   5.069   5.175   1.650
10468SOL     OW33410   9.443   5.215  10.952
10468SOL    HW133411   9.438   5.307  10.976
10468SOL    HW233412   9.446   5.168  11.035
10469SOL     OW33413   4.470   8.472  10.262
10469SOL    HW133414   4.497   8.530  10.333
10469SOL    HW233415   4.416   8.527  10.205
10470SOL     OW33416   0.104   3.270   9.266
10470SOL    HW133417   0.045   3.320   9.209
10470SOL    HW233418   0.185   3.321   9.268
10471SOL     OW33419   0.934   3.332   2.717
10471SOL    HW133420   0.845   3.342   2.685
10471SOL    HW233421   0.930   3.357   2.809
10472SOL     OW33422   2.889   7.853   5.525
10472SOL    HW133423   2.943   7.844   5.603
10472SOL    HW233424   2.932   7.922   5.474
10473SOL     OW33425   5.950   0.183   7.540
10473SOL    HW133426   5.906   0.110   7.583
10473SOL    HW233427   5.883   0.251   7.533
10474SOL     OW33428  10.836   2.462   3.002
10474SOL    HW133429  10.836   2.552   2.971
10474SOL    HW233430  10.755   2.425   2.968
10475SOL     OW33431  10.909   9.406   5.694
10475SOL    HW133432  10.925   9.498   5.676
10475SOL    HW233433  10.899   9.401   5.789
10476SOL     OW33434   3.170   3.358   1.917
10476SOL    HW133435   3.124   3.421   1.862
10476SOL    HW233436   3.262   3.381   1.907
10477SOL     OW33437   2.761   0.656   6.880
10477SOL    HW133438   2.833   0.594   6.869
10477SOL    HW233439   2.686   0.601   6.904
10478SOL     OW33440   6.420   5.714   4.654
10478SOL    HW133441   6.495   5.772   4.642
10478SOL    HW233442   6.424   5.689   4.746
10479SOL     OW33443   0.658  10.806   2.945
10479SOL    HW133444   0.723  10.835   2.881
10479SOL    HW233445   0.707  10.797   3.026
10480SOL     OW33446   8.781   2.971   8.292
10480SOL    HW133447   8.765   2.926   8.208
10480SOL    HW233448   8.694   2.980   8.331
10481SOL     OW33449   3.259  10.604   3.388
10481SOL    HW133450   3.174  10.568   3.365
10481SOL    HW233451   3.241  10.695   3.412
10482SOL     OW33452   9.489   3.149   3.319
10482SOL    HW133453   9.478   3.238   3.352
10482SOL    HW233454   9.572   3.151   3.271
10483SOL     OW33455  10.965   4.439   4.427
10483SOL    HW133456  10.917   4.432   4.344
10483SOL    HW233457  10.939   4.361   4.477
10484SOL     OW33458   6.081   9.596   0.019
10484SOL    HW133459   6.086   9.570   0.111
10484SOL    HW233460   6.045   9.519  -0.025
10485SOL     OW33461   5.796   5.713   9.643
10485SOL    HW133462   5.774   5.768   9.718
10485SOL    HW233463   5.726   5.729   9.579
10486SOL     OW33464   2.869   4.729   7.053
10486SOL    HW133465   2.950   4.776   7.073
10486SOL    HW233466   2.838   4.768   6.971
10487SOL     OW33467   6.824   6.067   2.685
10487SOL    HW133468   6.740   6.095   2.648
10487SOL    HW233469   6.827   6.109   2.771
10488SOL     OW33470   6.111  10.422   5.359
10488SOL    HW133471   6.113  10.407   5.264
10488SOL    HW233472   6.044  10.489   5.371
10489SOL     OW33473   3.440   1.361   3.722
10489SOL    HW133474   3.463   1.289   3.780
10489SOL    HW233475   3.509   1.361   3.656
10490SOL     OW33476   0.426   1.243   1.721
10490SOL    HW133477   0.448   1.203   1.637
10490SOL    HW233478   0.331   1.257   1.717
10491SOL     OW33479   2.958   6.657   4.645
10491SOL    HW133480   3.000   6.604   4.713
10491SOL    HW233481   2.984   6.615   4.563
10492SOL     OW33482   5.672   3.214   2.674
10492SOL    HW133483   5.614   3.143   2.703
10492SOL    HW233484   5.669   3.278   2.745
10493SOL     OW33485   4.792   3.842   4.026
10493SOL    HW133486   4.875   3.867   3.986
10493SOL    HW233487   4.769   3.916   4.082
10494SOL     OW33488   2.370   1.645   9.893
10494SOL    HW133489   2.294   1.613   9.845
10494SOL    HW233490   2.334   1.684   9.972
10495SOL     OW33491  10.911   2.438   0.315
10495SOL    HW133492  10.888   2.347   0.336
10495SOL    HW233493  10.839   2.490   0.349
10496SOL     OW33494  10.226   1.685   4.582
10496SOL    HW133495  10.176   1.603   4.580
10496SOL    HW233496  10.258   1.692   4.672
10497SOL     OW33497   0.852   0.060   9.876
10497SOL    HW133498   0.931   0.073   9.928
10497SOL    HW233499   0.883   0.023   9.793
10498SOL     OW33500   2.631   4.914   8.924
10498SOL    HW133501   2.725   4.916   8.942
10498SOL    HW233502   2.625   4.883   8.833
10499SOL     OW33503   2.015   1.588   6.415
10499SOL    HW133504   2.042   1.575   6.324
10499SOL    HW233505   2.075   1.533   6.465
10500SOL     OW33506   0.272   2.815   8.760
10500SOL    HW133507   0.331   2.824   8.835
10500SOL    HW233508   0.251   2.905   8.735
10501SOL     OW33509   0.626   4.444   9.178
10501SOL    HW133510   0.647   4.408   9.092
10501SOL    HW233511   0.671   4.528   9.180
10502SOL     OW33512   3.083   9.473   2.121
10502SOL    HW133513   3.171   9.434   2.121
10502SOL    HW233514   3.025   9.400   2.099
10503SOL     OW33515   7.256   3.494   9.248
10503SOL    HW133516   7.302   3.453   9.322
10503SOL    HW233517   7.280   3.440   9.172
10504SOL     OW33518   9.687   2.370   8.787
10504SOL    HW133519   9.693   2.359   8.882
10504SOL    HW233520   9.625   2.441   8.775
10505SOL     OW33521   8.990   3.034   1.178
10505SOL    HW133522   8.968   3.072   1.263
10505SOL    HW233523   8.906   3.010   1.140
10506SOL     OW33524   0.499   3.143   0.497
10506SOL    HW133525   0.454   3.116   0.417
10506SOL    HW233526   0.532   3.231   0.478
10507SOL     OW33527   1.449   2.041   8.922
10507SOL    HW133528   1.459   1.985   8.999
10507SOL    HW233529   1.424   2.126   8.957
10508SOL     OW33530   5.709   3.827   5.041
10508SOL    HW133531   5.704   3.900   5.102
10508SOL    HW233532   5.787   3.845   4.987
10509SOL     OW33533   4.973   0.972   4.010
10509SOL    HW133534   4.896   0.944   4.059
10509SOL    HW233535   5.029   1.014   4.075
10510SOL     OW33536   0.246   0.621   6.852
10510SOL    HW133537   0.269   0.685   6.784
10510SOL    HW233538   0.191   0.669   6.913
10511SOL     OW33539   5.135   4.459   5.500
10511SOL    HW133540   5.192   4.413   5.438
10511SOL    HW233541   5.195   4.504   5.559
10512SOL     OW33542   8.104   5.410   8.490
10512SOL    HW133543   8.199   5.415   8.504
10512SOL    HW233544   8.093   5.427   8.396
10513SOL     OW33545   8.644   3.482   1.279
10513SOL    HW133546   8.692   3.473   1.361
10513SOL    HW233547   8.668   3.569   1.246
10514SOL     OW33548   8.337  11.047   1.157
10514SOL    HW133549   8.250  11.067   1.192
10514SOL    HW233550   8.393  11.116   1.192
10515SOL     OW33551   1.167   5.193   9.518
10515SOL    HW133552   1.214   5.193   9.601
10515SOL    HW233553   1.128   5.280   9.511
10516SOL     OW33554   5.265   1.288   0.242
10516SOL    HW133555   5.282   1.273   0.149
10516SOL    HW233556   5.274   1.382   0.253
10517SOL     OW33557   7.380   7.138   0.789
10517SOL    HW133558   7.353   7.185   0.867
10517SOL    HW233559   7.331   7.178   0.718
10518SOL     OW33560   4.579   7.923   0.663
10518SOL    HW133561   4.656   7.931   0.607
10518SOL    HW233562   4.586   7.996   0.723
10519SOL     OW33563   0.077   7.337   7.618
10519SOL    HW133564   0.096   7.401   7.550
10519SOL    HW233565   0.158   7.329   7.668
10520SOL     OW33566   0.832   1.942   3.967
10520SOL    HW133567   0.886   2.016   3.939
10520SOL    HW233568   0.742   1.975   3.964
10521SOL     OW33569   1.761   9.759   3.659
10521SOL    HW133570   1.746   9.665   3.675
10521SOL    HW233571   1.674   9.798   3.664
10522SOL     OW33572  10.818   7.883   0.343
10522SOL    HW133573  10.746   7.902   0.403
10522SOL    HW233574  10.788   7.807   0.293
10523SOL     OW33575   1.929   5.706   4.527
10523SOL    HW133576   1.955   5.659   4.606
10523SOL    HW233577   1.931   5.639   4.458
10524SOL     OW33578   6.377   7.617   1.444
10524SOL    HW133579   6.356   7.526   1.464
10524SOL    HW233580   6.434   7.612   1.367
10525SOL     OW33581  10.165   3.900   3.491
10525SOL    HW133582  10.121   3.838   3.549
10525SOL    HW233583  10.182   3.976   3.545
10526SOL     OW33584   4.588   1.425   5.507
10526SOL    HW133585   4.495   1.404   5.500
10526SOL    HW233586   4.622   1.361   5.570
10527SOL     OW33587   1.219   4.856  10.145
10527SOL    HW133588   1.248   4.945  10.163
10527SOL    HW233589   1.281   4.823  10.080
10528SOL     OW33590   2.427   5.695   6.798
10528SOL    HW133591   2.353   5.635   6.791
10528SOL    HW233592   2.492   5.647   6.849
10529SOL     OW33593   2.703   2.079   3.591
10529SOL    HW133594   2.653   2.067   3.510
10529SOL    HW233595   2.794   2.059   3.566
10530SOL     OW33596   9.011   3.600   4.904
10530SOL    HW133597   9.102   3.571   4.915
10530SOL    HW233598   8.963   3.554   4.973
10531SOL     OW33599   0.534   2.690   2.087
10531SOL    HW133600   0.514   2.646   2.004
10531SOL    HW233601   0.464   2.754   2.098
10532SOL     OW33602   7.854   4.169   3.624
10532SOL    HW133603   7.929   4.219   3.593
10532SOL    HW233604   7.838   4.105   3.554
10533SOL     OW33605   6.269   6.285   9.849
10533SOL    HW133606   6.202   6.251   9.908
10533SOL    HW233607   6.252   6.379   9.845
10534SOL     OW33608   1.997  10.164   4.162
10534SOL    HW133609   2.093  10.163   4.161
10534SOL    HW233610   1.972  10.135   4.074
10535SOL     OW33611   2.093   0.389   6.081
10535SOL    HW133612   2.078   0.455   6.148
10535SOL    HW233613   2.102   0.438   5.999
10536SOL     OW33614   1.378   1.808   8.798
10536SOL    HW133615   1.394   1.885   8.851
10536SOL    HW233616   1.349   1.741   8.860
10537SOL     OW33617   2.928   8.939  10.959
10537SOL    HW133618   2.887   8.963  10.876
10537SOL    HW233619   3.022   8.948  10.943
10538SOL     OW33620   1.770   4.157   8.703
10538SOL    HW133621   1.799   4.066   8.709
10538SOL    HW233622   1.838   4.200   8.651
10539SOL     OW33623   7.343   2.620   1.845
10539SOL    HW133624   7.254   2.638   1.876
10539SOL    HW233625   7.390   2.590   1.922
10540SOL     OW33626  10.357   5.310   3.963
10540SOL    HW133627  10.372   5.311   3.868
10540SOL    HW233628  10.437   5.347   4.000
10541SOL     OW33629   4.565   1.939   7.158
10541SOL    HW133630   4.651   1.902   7.137
10541SOL    HW233631   4.576   2.033   7.148
10542SOL     OW33632   1.159   2.519   8.329
10542SOL    HW133633   1.254   2.529   8.334
10542SOL    HW233634   1.131   2.512   8.420
10543SOL     OW33635   0.412   2.270  10.899
10543SOL    HW133636   0.407   2.357  10.859
10543SOL    HW233637   0.450   2.285  10.985
10544SOL     OW33638   9.109   4.592   5.935
10544SOL    HW133639   9.144   4.680   5.950
10544SOL    HW233640   9.024   4.592   5.979
10545SOL     OW33641   3.784   7.364   9.460
10545SOL    HW133642   3.788   7.455   9.487
10545SOL    HW233643   3.842   7.318   9.521
10546SOL     OW33644   7.118   4.640   5.777
10546SOL    HW133645   7.067   4.719   5.792
10546SOL    HW233646   7.198   4.652   5.828
10547SOL     OW33647   0.025   8.266   7.220
10547SOL    HW133648   0.077   8.332   7.175
10547SOL    HW233649  -0.016   8.312   7.293
10548SOL     OW33650   3.833   4.498   6.306
10548SOL    HW133651   3.859   4.406   6.319
10548SOL    HW233652   3.905   4.536   6.254
10549SOL     OW33653   0.410   2.355   7.367
10549SOL    HW133654   0.501   2.329   7.383
10549SOL    HW233655   0.369   2.277   7.328
10550SOL     OW33656   6.461   6.039   7.318
10550SOL    HW133657   6.540   6.093   7.312
10550SOL    HW233658   6.404   6.072   7.248
10551SOL     OW33659   5.131   4.537   7.338
10551SOL    HW133660   5.110   4.584   7.418
10551SOL    HW233661   5.132   4.444   7.363
10552SOL     OW33662   7.735   8.444   2.675
10552SOL    HW133663   7.654   8.403   2.645
10552SOL    HW233664   7.719   8.464   2.767
10553SOL     OW33665   1.027   8.843  10.732
10553SOL    HW133666   0.978   8.913  10.689
10553SOL    HW233667   1.045   8.781  10.661
10554SOL     OW33668   1.402  10.383   4.667
10554SOL    HW133669   1.429  10.321   4.599
10554SOL    HW233670   1.375  10.461   4.619
10555SOL     OW33671   2.878  11.088   7.130
10555SOL    HW133672   2.823  11.166   7.128
10555SOL    HW233673   2.856  11.044   7.212
10556SOL     OW33674   8.998   7.698   4.739
10556SOL    HW133675   8.905   7.704   4.717
10556SOL    HW233676   9.037   7.775   4.698
10557SOL     OW33677   4.751  11.037   8.212
10557SOL    HW133678   4.742  10.943   8.225
10557SOL    HW233679   4.845  11.054   8.219
10558SOL     OW33680   8.071   7.998  10.932
10558SOL    HW133681   8.065   7.913  10.887
10558SOL    HW233682   7.987   8.040  10.914
10559SOL     OW33683   6.770   0.904   1.536
10559SOL    HW133684   6.754   0.998   1.538
10559SOL    HW233685   6.712   0.871   1.467
10560SOL     OW33686   9.389   6.394   1.396
10560SOL    HW133687   9.478   6.380   1.429
10560SOL    HW233688   9.335   6.407   1.474
10561SOL     OW33689   7.773   1.244   4.846
10561SOL    HW133690   7.742   1.329   4.815
10561SOL    HW233691   7.742   1.181   4.780
10562SOL     OW33692   1.145   0.979   5.532
10562SOL    HW133693   1.156   1.071   5.556
10562SOL    HW233694   1.204   0.932   5.591
10563SOL     OW33695   3.519   4.911   3.348
10563SOL    HW133696   3.557   4.824   3.335
10563SOL    HW233697   3.479   4.907   3.435
10564SOL     OW33698   2.359   4.735   2.966
10564SOL    HW133699   2.342   4.787   2.887
10564SOL    HW233700   2.354   4.798   3.038
10565SOL     OW33701   0.191   0.787   5.388
10565SOL    HW133702   0.240   0.868   5.377
10565SOL    HW233703   0.101   0.815   5.407
10566SOL     OW33704   3.731   0.584   2.545
10566SOL    HW133705   3.638   0.601   2.561
10566SOL    HW233706   3.775   0.619   2.622
10567SOL     OW33707   1.198   0.452   7.494
10567SOL    HW133708   1.194   0.497   7.409
10567SOL    HW233709   1.210   0.522   7.558
10568SOL     OW33710   1.748  10.540   6.228
10568SOL    HW133711   1.738  10.453   6.267
10568SOL    HW233712   1.782  10.595   6.298
10569SOL     OW33713   2.585   5.696   0.430
10569SOL    HW133714   2.536   5.752   0.370
10569SOL    HW233715   2.582   5.741   0.514
10570SOL     OW33716   9.242   3.292   7.196
10570SOL    HW133717   9.149   3.271   7.205
10570SOL    HW233718   9.281   3.211   7.162
10571SOL     OW33719   3.784   2.266   1.715
10571SOL    HW133720   3.811   2.255   1.806
10571SOL    HW233721   3.734   2.187   1.695
10572SOL     OW33722   2.994   5.625   1.480
10572SOL    HW133723   3.002   5.683   1.556
10572SOL    HW233724   2.900   5.625   1.460
10573SOL     OW33725   4.826   9.647   8.387
10573SOL    HW133726   4.890   9.696   8.438
10573SOL    HW233727   4.858   9.653   8.297
10574SOL     OW33728  10.697   0.052   6.955
10574SOL    HW133729  10.613   0.006   6.949
10574SOL    HW233730  10.708   0.093   6.869
10575SOL     OW33731   5.252   1.512   0.885
10575SOL    HW133732   5.327   1.508   0.825
10575SOL    HW233733   5.264   1.435   0.941
10576SOL     OW33734   7.973   8.265   4.830
10576SOL    HW133735   7.998   8.173   4.838
10576SOL    HW233736   8.034   8.300   4.765
10577SOL     OW33737   6.739   2.648   1.603
10577SOL    HW133738   6.772   2.562   1.629
10577SOL    HW233739   6.817   2.702   1.597
10578SOL     OW33740   2.204   2.555   1.695
10578SOL    HW133741   2.299   2.568   1.694
10578SOL    HW233742   2.167   2.641   1.677
10579SOL     OW33743   3.417   6.315   2.983
10579SOL    HW133744   3.378   6.394   3.021
10579SOL    HW233745   3.490   6.347   2.930
10580SOL     OW33746   0.492   5.191   2.642
10580SOL    HW133747   0.549   5.267   2.629
10580SOL    HW233748   0.538   5.119   2.597
10581SOL     OW33749   6.569   4.411   4.755
10581SOL    HW133750   6.502   4.474   4.781
10581SOL    HW233751   6.539   4.377   4.670
10582SOL     OW33752   2.372   3.502   4.997
10582SOL    HW133753   2.373   3.432   5.063
10582SOL    HW233754   2.363   3.583   5.047
10583SOL     OW33755   6.099   5.196  10.911
10583SOL    HW133756   6.078   5.241  10.829
10583SOL    HW233757   6.027   5.219  10.970
10584SOL     OW33758   0.829   6.964   1.242
10584SOL    HW133759   0.846   6.986   1.333
10584SOL    HW233760   0.879   7.028   1.191
10585SOL     OW33761   3.364   6.702   5.420
10585SOL    HW133762   3.271   6.698   5.442
10585SOL    HW233763   3.389   6.793   5.437
10586SOL     OW33764   1.050   4.603   6.862
10586SOL    HW133765   1.119   4.605   6.928
10586SOL    HW233766   1.043   4.511   6.837
10587SOL     OW33767   3.593   2.767   4.452
10587SOL    HW133768   3.561   2.785   4.540
10587SOL    HW233769   3.612   2.673   4.452
10588SOL     OW33770   0.044   8.372   4.397
10588SOL    HW133771   0.046   8.278   4.378
10588SOL    HW233772   0.114   8.409   4.343
10589SOL     OW33773   1.604   1.419   7.074
10589SOL    HW133774   1.669   1.368   7.026
10589SOL    HW233775   1.535   1.436   7.009
10590SOL     OW33776   5.391   9.875   4.300
10590SOL    HW133777   5.469   9.833   4.264
10590SOL    HW233778   5.330   9.802   4.315
10591SOL     OW33779   8.312   2.656   6.692
10591SOL    HW133780   8.291   2.744   6.663
10591SOL    HW233781   8.233   2.605   6.675
10592SOL     OW33782   0.757   5.516   1.716
10592SOL    HW133783   0.825   5.507   1.783
10592SOL    HW233784   0.781   5.451   1.649
10593SOL     OW33785  11.096   2.203   2.530
10593SOL    HW133786  11.058   2.282   2.493
10593SOL    HW233787  11.094   2.217   2.624
10594SOL     OW33788   2.372   4.171   9.240
10594SOL    HW133789   2.380   4.178   9.335
10594SOL    HW233790   2.315   4.095   9.226
10595SOL     OW33791   0.016   4.261   5.446
10595SOL    HW133792  -0.055   4.217   5.493
10595SOL    HW233793   0.090   4.200   5.452
10596SOL     OW33794   2.115   5.075   6.818
10596SOL    HW133795   2.094   4.984   6.842
10596SOL    HW233796   2.108   5.124   6.900
10597SOL     OW33797   5.759  10.268   8.398
10597SOL    HW133798   5.752  10.231   8.310
10597SOL    HW233799   5.853  10.264   8.418
10598SOL     OW33800   2.491   5.819   6.397
10598SOL    HW133801   2.564   5.846   6.452
10598SOL    HW233802   2.415   5.824   6.454
10599SOL     OW33803   0.863   0.737   4.501
10599SOL    HW133804   0.949   0.717   4.464
10599SOL    HW233805   0.880   0.807   4.564
10600SOL     OW33806   6.933   0.775   3.990
10600SOL    HW133807   6.962   0.788   4.080
10600SOL    HW233808   6.938   0.861   3.949
10601SOL     OW33809   8.818   2.442   7.053
10601SOL    HW133810   8.799   2.417   7.143
10601SOL    HW233811   8.834   2.536   7.057
10602SOL     OW33812  10.492  11.021   8.624
10602SOL    HW133813  10.445  11.019   8.707
10602SOL    HW233814  10.517  10.930   8.608
10603SOL     OW33815   9.845   2.484   0.753
10603SOL    HW133816   9.866   2.393   0.732
10603SOL    HW233817   9.768   2.478   0.809
10604SOL     OW33818   9.637   0.036   6.616
10604SOL    HW133819   9.643  -0.007   6.701
10604SOL    HW233820   9.559   0.091   6.621
10605SOL     OW33821   5.195   2.934   8.709
10605SOL    HW133822   5.119   2.942   8.651
10605SOL    HW233823   5.236   3.020   8.707
10606SOL     OW33824   2.463   5.425   1.021
10606SOL    HW133825   2.510   5.357   0.972
10606SOL    HW233826   2.507   5.428   1.105
10607SOL     OW33827  10.392   3.988   8.866
10607SOL    HW133828  10.393   4.065   8.923
10607SOL    HW233829  10.366   4.022   8.780
10608SOL     OW33830   2.664   4.167   3.653
10608SOL    HW133831   2.697   4.240   3.705
10608SOL    HW233832   2.684   4.191   3.562
10609SOL     OW33833   4.313   7.269   3.148
10609SOL    HW133834   4.304   7.176   3.124
10609SOL    HW233835   4.313   7.269   3.243
10610SOL     OW33836   7.744   3.970   0.309
10610SOL    HW133837   7.668   3.933   0.265
10610SOL    HW233838   7.792   4.015   0.239
10611SOL     OW33839   1.777   2.531   5.762
10611SOL    HW133840   1.811   2.442   5.769
10611SOL    HW233841   1.690   2.520   5.724
10612SOL     OW33842   7.187   5.119   9.320
10612SOL    HW133843   7.134   5.098   9.243
10612SOL    HW233844   7.206   5.034   9.359
10613SOL     OW33845  10.212   3.156   3.139
10613SOL    HW133846  10.222   3.154   3.234
10613SOL    HW233847  10.301   3.173   3.106
10614SOL     OW33848   3.359   3.442   8.615
10614SOL    HW133849   3.371   3.462   8.707
10614SOL    HW233850   3.409   3.361   8.601
10615SOL     OW33851   6.465   8.310  10.521
10615SOL    HW133852   6.437   8.310  10.612
10615SOL    HW233853   6.493   8.220  10.504
10616SOL     OW33854   0.042   0.398   9.115
10616SOL    HW133855   0.036   0.485   9.154
10616SOL    HW233856   0.115   0.404   9.053
10617SOL     OW33857   2.472   5.886   4.367
10617SOL    HW133858   2.488   5.972   4.329
10617SOL    HW233859   2.550   5.868   4.419
10618SOL     OW33860   4.764   2.157   8.128
10618SOL    HW133861   4.713   2.232   8.157
10618SOL    HW233862   4.831   2.146   8.195
10619SOL     OW33863   1.103   8.031   9.347
10619SOL    HW133864   1.181   8.076   9.315
10619SOL    HW233865   1.052   8.099   9.391
10620SOL     OW33866   5.379  11.089   5.950
10620SOL    HW133867   5.442  11.047   5.891
10620SOL    HW233868   5.298  11.040   5.938
10621SOL     OW33869   2.195   2.679   3.943
10621SOL    HW133870   2.189   2.744   4.013
10621SOL    HW233871   2.108   2.639   3.939
10622SOL     OW33872   7.903   4.114   0.144
10622SOL    HW133873   7.876   4.195   0.186
10622SOL    HW233874   7.986   4.092   0.186
10623SOL     OW33875   0.712   9.627   0.840
10623SOL    HW133876   0.748   9.659   0.757
10623SOL    HW233877   0.618   9.621   0.824
10624SOL     OW33878   3.191   8.666   3.516
10624SOL    HW133879   3.100   8.693   3.531
10624SOL    HW233880   3.205   8.680   3.422
10625SOL     OW33881   8.603   0.817   1.087
10625SOL    HW133882   8.609   0.779   1.175
10625SOL    HW233883   8.578   0.743   1.031
10626SOL     OW33884   4.039  10.914   4.182
10626SOL    HW133885   3.972  10.969   4.221
10626SOL    HW233886   4.103  10.901   4.252
10627SOL     OW33887   2.253   7.559   5.825
10627SOL    HW133888   2.246   7.472   5.864
10627SOL    HW233889   2.344   7.564   5.795
10628SOL     OW33890   4.426   1.237   7.417
10628SOL    HW133891   4.519   1.221   7.432
10628SOL    HW233892   4.404   1.182   7.341
10629SOL     OW33893   6.123   2.585   8.981
10629SOL    HW133894   6.184   2.617   9.047
10629SOL    HW233895   6.170   2.593   8.898
10630SOL     OW33896  10.658   5.965   6.855
10630SOL    HW133897  10.665   5.874   6.884
10630SOL    HW233898  10.587   6.001   6.908
10631SOL     OW33899   7.912   5.779   3.922
10631SOL    HW133900   7.836   5.735   3.960
10631SOL    HW233901   7.877   5.859   3.884
10632SOL     OW33902   8.270   6.379   3.308
10632SOL    HW133903   8.251   6.352   3.218
10632SOL    HW233904   8.338   6.446   3.299
10633SOL     OW33905   9.757   2.461   2.704
10633SOL    HW133906   9.729   2.551   2.716
10633SOL    HW233907   9.852   2.463   2.719
10634SOL     OW33908   5.746   9.643  10.569
10634SOL    HW133909   5.652   9.640  10.588
10634SOL    HW233910   5.783   9.569  10.617
10635SOL     OW33911   9.183   2.685   4.243
10635SOL    HW133912   9.190   2.763   4.298
10635SOL    HW233913   9.089   2.670   4.233
10636SOL     OW33914   3.776   4.561   1.018
10636SOL    HW133915   3.748   4.472   1.039
10636SOL    HW233916   3.851   4.549   0.959
10637SOL     OW33917   4.491   8.315   5.974
10637SOL    HW133918   4.505   8.228   6.011
10637SOL    HW233919   4.436   8.360   6.038
10638SOL     OW33920   9.554   0.240   1.843
10638SOL    HW133921   9.496   0.288   1.901
10638SOL    HW233922   9.641   0.277   1.859
10639SOL     OW33923   2.255   6.443   2.713
10639SOL    HW133924   2.233   6.350   2.707
10639SOL    HW233925   2.172   6.488   2.700
10640SOL     OW33926   5.709   6.488   3.402
10640SOL    HW133927   5.726   6.480   3.496
10640SOL    HW233928   5.616   6.510   3.396
10641SOL     OW33929   6.963   6.330   1.004
10641SOL    HW133930   6.891   6.342   0.942
10641SOL    HW233931   6.972   6.414   1.047
10642SOL     OW33932   1.469   2.448   4.847
10642SOL    HW133933   1.391   2.496   4.820
10642SOL    HW233934   1.444   2.405   4.929
10643SOL     OW33935   2.805   0.631   3.981
10643SOL    HW133936   2.835   0.574   3.910
10643SOL    HW233937   2.834   0.718   3.955
10644SOL     OW33938   3.843  10.566   4.790
10644SOL    HW133939   3.926  10.547   4.747
10644SOL    HW233940   3.849  10.523   4.875
10645SOL     OW33941  10.650   4.013  10.011
10645SOL    HW133942  10.617   3.939  10.063
10645SOL    HW233943  10.690   3.972   9.934
10646SOL     OW33944  10.186   6.417   9.588
10646SOL    HW133945  10.274   6.405   9.624
10646SOL    HW233946  10.198   6.414   9.493
10647SOL     OW33947   8.856   5.047   9.952
10647SOL    HW133948   8.870   5.102  10.029
10647SOL    HW233949   8.939   5.050   9.905
10648SOL     OW33950   2.069   2.757   9.547
10648SOL    HW133951   2.071   2.678   9.601
10648SOL    HW233952   2.158   2.765   9.513
10649SOL     OW33953   8.953   1.718   4.604
10649SOL    HW133954   8.859   1.700   4.603
10649SOL    HW233955   8.979   1.710   4.696
10650SOL     OW33956   3.035   6.366   7.064
10650SOL    HW133957   2.964   6.375   7.000
10650SOL    HW233958   3.114   6.388   7.014
10651SOL     OW33959   7.177   7.777   8.224
10651SOL    HW133960   7.246   7.751   8.162
10651SOL    HW233961   7.205   7.739   8.307
10652SOL     OW33962   8.068   4.971   8.860
10652SOL    HW133963   8.100   4.881   8.863
10652SOL    HW233964   8.145   5.023   8.837
10653SOL     OW33965   5.543  10.233   5.405
10653SOL    HW133966   5.491  10.313   5.399
10653SOL    HW233967   5.627  10.261   5.442
10654SOL     OW33968   9.198   4.770   1.647
10654SOL    HW133969   9.181   4.863   1.656
10654SOL    HW233970   9.130   4.739   1.587
10655SOL     OW33971   3.971   6.006   9.405
10655SOL    HW133972   4.023   6.085   9.393
10655SOL    HW233973   3.948   5.979   9.316
10656SOL     OW33974   7.101   5.325  10.220
10656SOL    HW133975   7.037   5.387  10.255
10656SOL    HW233976   7.154   5.376  10.159
10657SOL     OW33977   5.881   4.991   9.614
10657SOL    HW133978   5.908   4.964   9.701
10657SOL    HW233979   5.789   4.965   9.608
10658SOL     OW33980   2.772   3.287   1.646
10658SOL    HW133981   2.685   3.327   1.640
10658SOL    HW233982   2.797   3.272   1.555
10659SOL     OW33983   1.428   5.407   7.047
10659SOL    HW133984   1.406   5.327   6.999
10659SOL    HW233985   1.344   5.451   7.061
10660SOL     OW33986   7.911   1.238   6.349
10660SOL    HW133987   7.999   1.264   6.376
10660SOL    HW233988   7.854   1.308   6.380
10661SOL     OW33989   5.566   5.801   2.891
10661SOL    HW133990   5.531   5.835   2.973
10661SOL    HW233991   5.649   5.760   2.915
10662SOL     OW33992   5.251   3.061   8.058
10662SOL    HW133993   5.319   3.029   8.117
10662SOL    HW233994   5.232   3.149   8.089
10663SOL     OW33995   3.744   3.823   5.639
10663SOL    HW133996   3.695   3.750   5.678
10663SOL    HW233997   3.750   3.801   5.546
10664SOL     OW33998   3.260   6.767   5.766
10664SOL    HW133999   3.353   6.787   5.751
10664SOL    HW234000   3.241   6.697   5.703
10665SOL     OW34001   3.512   5.232   5.547
10665SOL    HW134002   3.429   5.266   5.581
10665SOL    HW234003   3.558   5.199   5.624
10666SOL     OW34004   2.624   8.884   6.782
10666SOL    HW134005   2.577   8.813   6.738
10666SOL    HW234006   2.636   8.950   6.714
10667SOL     OW34007   6.138   6.371   1.707
10667SOL    HW134008   6.193   6.449   1.696
10667SOL    HW234009   6.186   6.302   1.660
10668SOL     OW34010   7.698   1.080   5.917
10668SOL    HW134011   7.707   1.161   5.966
10668SOL    HW234012   7.604   1.068   5.908
10669SOL     OW34013   3.534  10.199   7.970
10669SOL    HW134014   3.543  10.106   7.949
10669SOL    HW234015   3.484  10.235   7.896
10670SOL     OW34016   5.070   3.165   7.461
10670SOL    HW134017   5.101   3.219   7.388
10670SOL    HW234018   5.000   3.112   7.422
10671SOL     OW34019   5.727   8.117   5.735
10671SOL    HW134020   5.677   8.195   5.757
10671SOL    HW234021   5.692   8.089   5.650
10672SOL     OW34022   5.718  10.938   7.007
10672SOL    HW134023   5.692  10.957   7.097
10672SOL    HW234024   5.659  10.990   6.953
10673SOL     OW34025   0.353   7.648   3.600
10673SOL    HW134026   0.401   7.637   3.682
10673SOL    HW234027   0.385   7.577   3.543
10674SOL     OW34028   0.794   4.536  10.232
10674SOL    HW134029   0.844   4.497  10.304
10674SOL    HW234030   0.833   4.499  10.153
10675SOL     OW34031   2.589   0.171   3.082
10675SOL    HW134032   2.618   0.245   3.135
10675SOL    HW234033   2.629   0.094   3.123
10676SOL     OW34034   0.684   5.749   3.233
10676SOL    HW134035   0.620   5.715   3.170
10676SOL    HW234036   0.715   5.671   3.279
10677SOL     OW34037   8.303   5.780  10.124
10677SOL    HW134038   8.328   5.831  10.200
10677SOL    HW234039   8.215   5.810  10.103
10678SOL     OW34040   3.294   5.608   2.180
10678SOL    HW134041   3.218   5.632   2.232
10678SOL    HW234042   3.281   5.515   2.160
10679SOL     OW34043   4.563   1.204   5.974
10679SOL    HW134044   4.602   1.283   6.011
10679SOL    HW234045   4.568   1.139   6.044
10680SOL     OW34046   2.037   9.616   9.002
10680SOL    HW134047   2.080   9.595   9.084
10680SOL    HW234048   1.957   9.662   9.027
10681SOL     OW34049   0.946   6.000   5.151
10681SOL    HW134050   0.881   6.008   5.220
10681SOL    HW234051   0.966   5.906   5.148
10682SOL     OW34052   4.082   8.807  10.251
10682SOL    HW134053   4.138   8.870  10.296
10682SOL    HW234054   4.031   8.860  10.190
10683SOL     OW34055   8.160   4.923   8.456
10683SOL    HW134056   8.086   4.915   8.516
10683SOL    HW234057   8.136   4.995   8.398
10684SOL     OW34058   3.901   2.378   1.986
10684SOL    HW134059   3.887   2.465   1.950
10684SOL    HW234060   3.993   2.358   1.966
10685SOL     OW34061   2.335   2.594   0.892
10685SOL    HW134062   2.253   2.623   0.931
10685SOL    HW234063   2.317   2.505   0.861
10686SOL     OW34064   0.602   4.745   7.749
10686SOL    HW134065   0.596   4.746   7.844
10686SOL    HW234066   0.579   4.655   7.724
10687SOL     OW34067   7.652   6.440   4.212
10687SOL    HW134068   7.654   6.530   4.181
10687SOL    HW234069   7.566   6.407   4.186
10688SOL     OW34070   5.401   3.654   4.825
10688SOL    HW134071   5.354   3.586   4.874
10688SOL    HW234072   5.491   3.622   4.820
10689SOL     OW34073   4.284   6.130   4.052
10689SOL    HW134074   4.221   6.199   4.032
10689SOL    HW234075   4.336   6.121   3.972
10690SOL     OW34076   4.494   0.152   3.186
10690SOL    HW134077   4.424   0.188   3.132
10690SOL    HW234078   4.567   0.213   3.174
10691SOL     OW34079   6.488   4.122   8.682
10691SOL    HW134080   6.403   4.117   8.639
10691SOL    HW234081   6.470   4.165   8.765
10692SOL     OW34082   5.091  10.139   9.088
10692SOL    HW134083   5.065  10.138   9.180
10692SOL    HW234084   5.131  10.053   9.073
10693SOL     OW34085   3.064   4.300   8.770
10693SOL    HW134086   3.005   4.365   8.731
10693SOL    HW234087   3.081   4.238   8.699
10694SOL     OW34088   0.311   4.005   4.568
10694SOL    HW134089   0.266   4.080   4.529
10694SOL    HW234090   0.320   3.943   4.495
10695SOL     OW34091   2.908   9.067   5.091
10695SOL    HW134092   3.000   9.079   5.066
10695SOL    HW234093   2.863   9.141   5.052
10696SOL     OW34094  10.446   5.137   8.729
10696SOL    HW134095  10.387   5.066   8.754
10696SOL    HW234096  10.525   5.093   8.698
10697SOL     OW34097   9.370   0.065   7.774
10697SOL    HW134098   9.444   0.018   7.812
10697SOL    HW234099   9.394   0.075   7.681
10698SOL     OW34100   8.689   2.313   8.649
10698SOL    HW134101   8.656   2.384   8.703
10698SOL    HW234102   8.623   2.244   8.656
10699SOL     OW34103   6.029   1.992   4.492
10699SOL    HW134104   6.001   1.902   4.475
10699SOL    HW234105   6.033   1.998   4.587
10700SOL     OW34106   4.072   6.600   6.220
10700SOL    HW134107   4.085   6.506   6.207
10700SOL    HW234108   4.041   6.632   6.135
10701SOL     OW34109   2.197   3.184   4.447
10701SOL    HW134110   2.265   3.193   4.380
10701SOL    HW234111   2.240   3.210   4.528
10702SOL     OW34112   3.746   0.369   5.255
10702SOL    HW134113   3.671   0.348   5.200
10702SOL    HW234114   3.710   0.420   5.327
10703SOL     OW34115   8.383   5.951   5.537
10703SOL    HW134116   8.457   5.920   5.589
10703SOL    HW234117   8.341   6.017   5.591
10704SOL     OW34118   3.050   4.649   0.515
10704SOL    HW134119   3.013   4.561   0.504
10704SOL    HW234120   3.079   4.651   0.606
10705SOL     OW34121   2.118   2.244   0.975
10705SOL    HW134122   2.207   2.235   0.940
10705SOL    HW234123   2.064   2.262   0.898
10706SOL     OW34124   7.373   0.176   4.157
10706SOL    HW134125   7.327   0.189   4.240
10706SOL    HW234126   7.463   0.205   4.174
10707SOL     OW34127   2.680   2.624   9.835
10707SOL    HW134128   2.679   2.719   9.831
10707SOL    HW234129   2.747   2.598   9.771
10708SOL     OW34130   3.556   3.789   7.895
10708SOL    HW134131   3.541   3.881   7.915
10708SOL    HW234132   3.643   3.771   7.930
10709SOL     OW34133   3.070   2.008   3.673
10709SOL    HW134134   3.137   1.940   3.682
10709SOL    HW234135   3.028   1.989   3.589
10710SOL     OW34136   4.526   6.782   7.821
10710SOL    HW134137   4.516   6.857   7.762
10710SOL    HW234138   4.492   6.707   7.771
10711SOL     OW34139   6.757   0.601   3.837
10711SOL    HW134140   6.839   0.630   3.877
10711SOL    HW234141   6.758   0.639   3.749
10712SOL     OW34142   5.986   7.958  10.228
10712SOL    HW134143   5.951   8.032  10.276
10712SOL    HW234144   6.034   7.997  10.155
10713SOL     OW34145   3.118   3.032   8.372
10713SOL    HW134146   3.101   3.113   8.324
10713SOL    HW234147   3.198   2.997   8.332
10714SOL     OW34148   3.416   0.088  10.330
10714SOL    HW134149   3.416   0.002  10.287
10714SOL    HW234150   3.431   0.150  10.259
10715SOL     OW34151   6.098   1.434   6.818
10715SOL    HW134152   6.099   1.478   6.903
10715SOL    HW234153   6.125   1.344   6.837
10716SOL     OW34154   7.569  10.278   3.555
10716SOL    HW134155   7.629  10.220   3.603
10716SOL    HW234156   7.567  10.242   3.466
10717SOL     OW34157   1.210   2.946   4.898
10717SOL    HW134158   1.124   2.905   4.909
10717SOL    HW234159   1.220   2.956   4.803
10718SOL     OW34160   2.646   6.764  10.159
10718SOL    HW134161   2.599   6.686  10.191
10718SOL    HW234162   2.731   6.730  10.129
10719SOL     OW34163   2.527   0.949   7.396
10719SOL    HW134164   2.547   0.999   7.317
10719SOL    HW234165   2.476   0.874   7.364
10720SOL     OW34166   2.626   8.472   3.869
10720SOL    HW134167   2.560   8.535   3.897
10720SOL    HW234168   2.664   8.510   3.790
10721SOL     OW34169   5.513  11.092   6.200
10721SOL    HW134170   5.482  11.113   6.112
10721SOL    HW234171   5.572  11.018   6.187
10722SOL     OW34172   1.206   9.105   8.029
10722SOL    HW134173   1.297   9.081   8.048
10722SOL    HW234174   1.177   9.039   7.966
10723SOL     OW34175   5.035   9.174   9.587
10723SOL    HW134176   5.017   9.166   9.680
10723SOL    HW234177   5.011   9.088   9.551
10724SOL     OW34178   8.622   6.191   5.737
10724SOL    HW134179   8.623   6.252   5.663
10724SOL    HW234180   8.557   6.125   5.712
10725SOL     OW34181   8.235   8.438  10.310
10725SOL    HW134182   8.308   8.494  10.284
10725SOL    HW234183   8.186   8.424  10.229
10726SOL     OW34184   1.933   4.586   3.734
10726SOL    HW134185   2.003   4.594   3.798
10726SOL    HW234186   1.938   4.495   3.705
10727SOL     OW34187   8.987   2.373  10.796
10727SOL    HW134188   9.024   2.414  10.874
10727SOL    HW234189   8.994   2.279  10.813
10728SOL     OW34190   9.628  10.904   3.892
10728SOL    HW134191   9.627  10.862   3.806
10728SOL    HW234192   9.624  10.998   3.873
10729SOL     OW34193   5.079   3.628   6.302
10729SOL    HW134194   5.136   3.637   6.378
10729SOL    HW234195   5.137   3.597   6.232
10730SOL     OW34196   1.485   0.304   5.739
10730SOL    HW134197   1.490   0.333   5.648
10730SOL    HW234198   1.448   0.378   5.786
10731SOL     OW34199   6.888   2.888   1.290
10731SOL    HW134200   6.811   2.883   1.234
10731SOL    HW234201   6.867   2.956   1.353
10732SOL     OW34202   1.044   5.600   7.466
10732SOL    HW134203   1.018   5.589   7.374
10732SOL    HW234204   1.082   5.687   7.470
10733SOL     OW34205   2.028   6.273  10.126
10733SOL    HW134206   1.966   6.212  10.166
10733SOL    HW234207   2.051   6.333  10.196
10734SOL     OW34208   4.760   9.832   6.786
10734SOL    HW134209   4.667   9.841   6.803
10734SOL    HW234210   4.800   9.908   6.826
10735SOL     OW34211   8.153   4.656   1.413
10735SOL    HW134212   8.144   4.603   1.333
10735SOL    HW234213   8.177   4.592   1.480
10736SOL     OW34214  10.680  10.319   5.295
10736SOL    HW134215  10.645  10.368   5.220
10736SOL    HW234216  10.767  10.291   5.266
10737SOL     OW34217   0.492   5.559   6.227
10737SOL    HW134218   0.536   5.643   6.235
10737SOL    HW234219   0.500   5.519   6.313
10738SOL     OW34220   4.188   4.077   6.918
10738SOL    HW134221   4.146   4.114   6.995
10738SOL    HW234222   4.184   3.982   6.931
10739SOL     OW34223   1.450   1.032   3.570
10739SOL    HW134224   1.501   1.104   3.607
10739SOL    HW234225   1.509   0.992   3.506
10740SOL     OW34226   5.521   3.949  10.627
10740SOL    HW134227   5.431   3.958  10.595
10740SOL    HW234228   5.567   3.905  10.556
10741SOL     OW34229   9.419   3.654   7.265
10741SOL    HW134230   9.513   3.670   7.252
10741SOL    HW234231   9.394   3.597   7.192
10742SOL     OW34232   8.414   5.851   9.696
10742SOL    HW134233   8.401   5.765   9.655
10742SOL    HW234234   8.473   5.833   9.769
10743SOL     OW34235   5.445   9.360   3.549
10743SOL    HW134236   5.422   9.292   3.612
10743SOL    HW234237   5.362   9.386   3.510
10744SOL     OW34238   9.079   6.893   0.445
10744SOL    HW134239   9.065   6.817   0.501
10744SOL    HW234240   9.029   6.963   0.486
10745SOL     OW34241   5.263   4.469   0.195
10745SOL    HW134242   5.281   4.511   0.111
10745SOL    HW234243   5.192   4.408   0.177
10746SOL     OW34244   7.824   8.135   7.156
10746SOL    HW134245   7.797   8.158   7.245
10746SOL    HW234246   7.865   8.049   7.165
10747SOL     OW34247   3.387   6.698   6.022
10747SOL    HW134248   3.347   6.749   5.952
10747SOL    HW234249   3.349   6.733   6.102
10748SOL     OW34250   0.791   0.136   6.378
10748SOL    HW134251   0.778   0.130   6.283
10748SOL    HW234252   0.806   0.229   6.394
10749SOL     OW34253   3.123   3.752   7.521
10749SOL    HW134254   3.209   3.716   7.542
10749SOL    HW234255   3.073   3.744   7.602
10750SOL     OW34256   0.445   8.297   8.608
10750SOL    HW134257   0.415   8.238   8.538
10750SOL    HW234258   0.366   8.320   8.656
10751SOL     OW34259   9.152   3.950   2.955
10751SOL    HW134260   9.059   3.937   2.938
10751SOL    HW234261   9.165   4.044   2.945
10752SOL     OW34262   0.416   5.374   4.260
10752SOL    HW134263   0.511   5.365   4.252
10752SOL    HW234264   0.383   5.284   4.250
10753SOL     OW34265   5.661   9.206   8.688
10753SOL    HW134266   5.664   9.206   8.783
10753SOL    HW234267   5.745   9.168   8.661
10754SOL     OW34268   6.992   9.815   4.605
10754SOL    HW134269   7.057   9.822   4.535
10754SOL    HW234270   6.934   9.744   4.577
10755SOL     OW34271   2.504   6.753   2.190
10755SOL    HW134272   2.448   6.702   2.248
10755SOL    HW234273   2.577   6.694   2.169
10756SOL     OW34274   4.607   0.270   9.909
10756SOL    HW134275   4.700   0.270   9.931
10756SOL    HW234276   4.570   0.200   9.963
10757SOL     OW34277   1.973   5.480   6.685
10757SOL    HW134278   2.065   5.489   6.710
10757SOL    HW234279   1.972   5.406   6.624
10758SOL     OW34280   1.771   5.438   5.767
10758SOL    HW134281   1.677   5.422   5.756
10758SOL    HW234282   1.813   5.375   5.707
10759SOL     OW34283   4.541   4.596   6.369
10759SOL    HW134284   4.578   4.668   6.419
10759SOL    HW234285   4.505   4.537   6.435
10760SOL     OW34286   3.334   3.568   5.093
10760SOL    HW134287   3.412   3.624   5.094
10760SOL    HW234288   3.271   3.615   5.038
10761SOL     OW34289  10.286   7.313   7.842
10761SOL    HW134290  10.289   7.383   7.777
10761SOL    HW234291  10.193   7.295   7.854
10762SOL     OW34292   2.017   1.547   0.212
10762SOL    HW134293   1.927   1.519   0.193
10762SOL    HW234294   2.062   1.541   0.127
10763SOL     OW34295   4.750   7.890   5.085
10763SOL    HW134296   4.675   7.942   5.113
10763SOL    HW234297   4.725   7.800   5.105
10764SOL     OW34298   4.110  10.710   0.722
10764SOL    HW134299   4.050  10.765   0.672
10764SOL    HW234300   4.058  10.678   0.795
10765SOL     OW34301   5.445   4.982   3.690
10765SOL    HW134302   5.521   4.925   3.703
10765SOL    HW234303   5.376   4.923   3.660
10766SOL     OW34304   5.758   8.974   3.248
10766SOL    HW134305   5.742   8.987   3.341
10766SOL    HW234306   5.830   9.034   3.227
10767SOL     OW34307  10.707   4.907   8.347
10767SOL    HW134308  10.686   4.951   8.429
10767SOL    HW234309  10.763   4.833   8.372
10768SOL     OW34310   3.394   1.578   5.933
10768SOL    HW134311   3.305   1.544   5.930
10768SOL    HW234312   3.449   1.500   5.922
10769SOL     OW34313  10.126   9.496   8.041
10769SOL    HW134314  10.156   9.493   8.132
10769SOL    HW234315  10.200   9.461   7.990
10770SOL     OW34316   8.123   8.767   7.817
10770SOL    HW134317   8.146   8.852   7.854
10770SOL    HW234318   8.205   8.717   7.819
10771SOL     OW34319   8.701  10.905   2.591
10771SOL    HW134320   8.742  10.820   2.606
10771SOL    HW234321   8.767  10.969   2.619
10772SOL     OW34322   4.982   2.848   7.318
10772SOL    HW134323   4.973   2.939   7.291
10772SOL    HW234324   4.898   2.808   7.296
10773SOL     OW34325   4.301   8.836  10.443
10773SOL    HW134326   4.244   8.761  10.459
10773SOL    HW234327   4.373   8.825  10.505
10774SOL     OW34328   6.928   1.252   3.299
10774SOL    HW134329   6.880   1.170   3.310
10774SOL    HW234330   7.007   1.240   3.351
10775SOL     OW34331   3.914   7.879   0.529
10775SOL    HW134332   3.946   7.808   0.585
10775SOL    HW234333   3.948   7.858   0.442
10776SOL     OW34334   7.345   2.718   8.814
10776SOL    HW134335   7.284   2.646   8.797
10776SOL    HW234336   7.430   2.684   8.786
10777SOL     OW34337   9.017   0.232   7.841
10777SOL    HW134338   8.924   0.235   7.864
10777SOL    HW234339   9.039   0.139   7.844
10778SOL     OW34340   1.873   3.110   2.388
10778SOL    HW134341   1.833   3.023   2.389
10778SOL    HW234342   1.809   3.166   2.431
10779SOL     OW34343   0.782   4.316   9.353
10779SOL    HW134344   0.731   4.345   9.277
10779SOL    HW234345   0.796   4.222   9.337
10780SOL     OW34346   7.787   6.514  10.510
10780SOL    HW134347   7.699   6.535  10.541
10780SOL    HW234348   7.840   6.590  10.533
10781SOL     OW34349   5.448   5.175   0.162
10781SOL    HW134350   5.416   5.141   0.079
10781SOL    HW234351   5.501   5.251   0.138
10782SOL     OW34352   8.120   2.024   5.647
10782SOL    HW134353   8.097   2.021   5.554
10782SOL    HW234354   8.081   1.944   5.683
10783SOL     OW34355   6.905   9.553   9.539
10783SOL    HW134356   6.915   9.512   9.625
10783SOL    HW234357   6.812   9.572   9.531
10784SOL     OW34358   4.901   1.902   7.437
10784SOL    HW134359   4.836   1.896   7.367
10784SOL    HW234360   4.851   1.927   7.514
10785SOL     OW34361   2.270   1.002  10.845
10785SOL    HW134362   2.238   1.091  10.829
10785SOL    HW234363   2.258   0.957  10.761
10786SOL     OW34364   8.884   8.333   5.755
10786SOL    HW134365   8.798   8.348   5.715
10786SOL    HW234366   8.927   8.418   5.754
10787SOL     OW34367   9.520   3.649   8.168
10787SOL    HW134368   9.594   3.637   8.108
10787SOL    HW234369   9.459   3.580   8.143
10788SOL     OW34370   4.359   2.627   5.274
10788SOL    HW134371   4.443   2.592   5.244
10788SOL    HW234372   4.300   2.551   5.274
10789SOL     OW34373   1.061   1.898   7.569
10789SOL    HW134374   1.096   1.944   7.645
10789SOL    HW234375   0.967   1.892   7.586
10790SOL     OW34376   1.513   3.750   4.424
10790SOL    HW134377   1.504   3.819   4.358
10790SOL    HW234378   1.608   3.737   4.432
10791SOL     OW34379   2.856   0.446   0.013
10791SOL    HW134380   2.806   0.502  -0.046
10791SOL    HW234381   2.929   0.500   0.043
10792SOL     OW34382   1.587   0.431   4.979
10792SOL    HW134383   1.626   0.492   4.917
10792SOL    HW234384   1.530   0.376   4.925
10793SOL     OW34385   5.577   4.163  10.851
10793SOL    HW134386   5.616   4.101  10.913
10793SOL    HW234387   5.565   4.112  10.771
10794SOL     OW34388   0.953   1.956   0.376
10794SOL    HW134389   0.923   2.028   0.321
10794SOL    HW234390   0.888   1.950   0.446
10795SOL     OW34391   3.707   7.054   7.506
10795SOL    HW134392   3.654   6.974   7.514
10795SOL    HW234393   3.794   7.028   7.538
10796SOL     OW34394   6.416   1.709   7.986
10796SOL    HW134395   6.418   1.804   7.975
10796SOL    HW234396   6.438   1.674   7.899
10797SOL     OW34397   3.049   4.425   5.440
10797SOL    HW134398   3.081   4.450   5.353
10797SOL    HW234399   3.054   4.329   5.441
10798SOL     OW34400   0.269   1.548   3.077
10798SOL    HW134401   0.360   1.576   3.088
10798SOL    HW234402   0.226   1.574   3.158
10799SOL     OW34403   4.218   0.062   5.677
10799SOL    HW134404   4.282  -0.009   5.685
10799SOL    HW234405   4.255   0.134   5.728
10800SOL     OW34406   4.003   7.000   5.795
10800SOL    HW134407   3.978   7.065   5.729
10800SOL    HW234408   4.076   7.040   5.842
10801SOL     OW34409   1.363   0.090   0.680
10801SOL    HW134410   1.329   0.000   0.673
10801SOL    HW234411   1.398   0.095   0.768
10802SOL     OW34412   1.938   7.142   7.079
10802SOL    HW134413   1.919   7.187   6.996
10802SOL    HW234414   1.884   7.187   7.144
10803SOL     OW34415  10.643  10.734   9.260
10803SOL    HW134416  10.667  10.664   9.199
10803SOL    HW234417  10.686  10.711   9.342
10804SOL     OW34418   1.577  10.846   2.684
10804SOL    HW134419   1.538  10.917   2.735
10804SOL    HW234420   1.539  10.856   2.597
10805SOL     OW34421   8.265   4.739   9.037
10805SOL    HW134422   8.280   4.796   9.112
10805SOL    HW234423   8.337   4.759   8.977
10806SOL     OW34424   2.525   4.334  10.847
10806SOL    HW134425   2.497   4.387  10.921
10806SOL    HW234426   2.452   4.338  10.785
10807SOL     OW34427   9.620   1.341   3.405
10807SOL    HW134428   9.562   1.267   3.422
10807SOL    HW234429   9.652   1.326   3.316
10808SOL     OW34430   2.554   2.184   6.776
10808SOL    HW134431   2.570   2.150   6.688
10808SOL    HW234432   2.625   2.246   6.791
10809SOL     OW34433   6.390   6.027  10.084
10809SOL    HW134434   6.451   6.097  10.063
10809SOL    HW234435   6.315   6.042  10.026
10810SOL     OW34436   2.620   7.493   9.839
10810SOL    HW134437   2.567   7.487   9.918
10810SOL    HW234438   2.709   7.510   9.870
10811SOL     OW34439   3.507   5.038   0.825
10811SOL    HW134440   3.429   5.079   0.787
10811SOL    HW234441   3.579   5.067   0.769
10812SOL     OW34442   9.810   4.673   7.229
10812SOL    HW134443   9.876   4.619   7.273
10812SOL    HW234444   9.787   4.623   7.150
10813SOL     OW34445   4.579   8.899   4.242
10813SOL    HW134446   4.607   8.938   4.325
10813SOL    HW234447   4.517   8.830   4.267
10814SOL     OW34448   3.818   9.799   6.318
10814SOL    HW134449   3.801   9.842   6.402
10814SOL    HW234450   3.825   9.871   6.255
10815SOL     OW34451   0.681   3.891   0.138
10815SOL    HW134452   0.760   3.850   0.103
10815SOL    HW234453   0.614   3.875   0.072
10816SOL     OW34454   9.665   5.729   8.998
10816SOL    HW134455   9.699   5.666   8.934
10816SOL    HW234456   9.628   5.674   9.067
10817SOL     OW34457   3.463   6.553   3.521
10817SOL    HW134458   3.389   6.492   3.524
10817SOL    HW234459   3.496   6.555   3.611
10818SOL     OW34460   5.355   5.400   7.655
10818SOL    HW134461   5.404   5.465   7.605
10818SOL    HW234462   5.264   5.412   7.628
10819SOL     OW34463   2.031   0.573   6.273
10819SOL    HW134464   1.952   0.608   6.315
10819SOL    HW234465   2.104   0.616   6.318
10820SOL     OW34466   8.712   6.575   7.953
10820SOL    HW134467   8.728   6.656   8.001
10820SOL    HW234468   8.731   6.505   8.016
10821SOL     OW34469   2.400   2.238   5.308
10821SOL    HW134470   2.332   2.229   5.241
10821SOL    HW234471   2.372   2.180   5.379
10822SOL     OW34472   0.637   6.061   0.418
10822SOL    HW134473   0.555   6.057   0.370
10822SOL    HW234474   0.628   6.136   0.475
10823SOL     OW34475   1.749   2.545   2.812
10823SOL    HW134476   1.666   2.540   2.764
10823SOL    HW234477   1.798   2.468   2.782
10824SOL     OW34478   5.550   3.981   9.116
10824SOL    HW134479   5.582   4.070   9.125
10824SOL    HW234480   5.470   3.978   9.168
10825SOL     OW34481   1.423   5.160  10.439
10825SOL    HW134482   1.482   5.234  10.452
10825SOL    HW234483   1.346   5.181  10.492
10826SOL     OW34484   2.399   6.946   9.754
10826SOL    HW134485   2.328   7.009   9.763
10826SOL    HW234486   2.423   6.923   9.844
10827SOL     OW34487   3.690   5.133   6.516
10827SOL    HW134488   3.756   5.172   6.573
10827SOL    HW234489   3.696   5.039   6.533
10828SOL     OW34490   5.690   8.132   7.754
10828SOL    HW134491   5.603   8.133   7.793
10828SOL    HW234492   5.675   8.113   7.661
10829SOL     OW34493   3.133   7.050   8.154
10829SOL    HW134494   3.183   7.076   8.231
10829SOL    HW234495   3.173   6.967   8.126
10830SOL     OW34496   5.129   1.996   0.065
10830SOL    HW134497   5.204   1.937   0.080
10830SOL    HW234498   5.158   2.055  -0.004
10831SOL     OW34499   3.002   4.662   8.394
10831SOL    HW134500   2.970   4.674   8.304
10831SOL    HW234501   2.924   4.672   8.449
10832SOL     OW34502   2.111   4.315   8.359
10832SOL    HW134503   2.196   4.271   8.355
10832SOL    HW234504   2.127   4.392   8.413
10833SOL     OW34505   8.112   1.975   6.116
10833SOL    HW134506   8.121   1.922   6.195
10833SOL    HW234507   8.198   2.016   6.105
10834SOL     OW34508   5.253   0.816   1.760
10834SOL    HW134509   5.199   0.827   1.838
10834SOL    HW234510   5.223   0.733   1.722
10835SOL     OW34511   0.845   5.912   5.435
10835SOL    HW134512   0.825   5.819   5.444
10835SOL    HW234513   0.873   5.939   5.522
10836SOL     OW34514   1.915   2.910   0.842
10836SOL    HW134515   1.862   2.839   0.878
10836SOL    HW234516   1.865   2.989   0.862
10837SOL     OW34517   4.455   2.676   8.405
10837SOL    HW134518   4.477   2.586   8.431
10837SOL    HW234519   4.363   2.686   8.428
10838SOL     OW34520   2.885   8.190   7.666
10838SOL    HW134521   2.979   8.193   7.686
10838SOL    HW234522   2.842   8.195   7.751
10839SOL     OW34523   7.408   8.323   7.160
10839SOL    HW134524   7.344   8.277   7.105
10839SOL    HW234525   7.443   8.255   7.217
10840SOL     OW34526   7.474   8.731  10.998
10840SOL    HW134527   7.523   8.770  10.925
10840SOL    HW234528   7.526   8.655  11.024
10841SOL     OW34529   8.968   7.297   4.573
10841SOL    HW134530   8.964   7.246   4.492
10841SOL    HW234531   9.059   7.288   4.602
10842SOL     OW34532   3.033   7.091   4.973
10842SOL    HW134533   3.085   7.022   5.015
10842SOL    HW234534   3.017   7.155   5.042
10843SOL     OW34535   4.200  10.072   2.157
10843SOL    HW134536   4.286  10.077   2.115
10843SOL    HW234537   4.140  10.111   2.093
10844SOL     OW34538   1.900   0.379   3.536
10844SOL    HW134539   1.985   0.335   3.541
10844SOL    HW234540   1.851   0.328   3.471
10845SOL     OW34541   3.330   8.348  10.667
10845SOL    HW134542   3.425   8.345  10.652
10845SOL    HW234543   3.299   8.262  10.639
10846SOL     OW34544   0.731   0.419   5.172
10846SOL    HW134545   0.812   0.422   5.223
10846SOL    HW234546   0.721   0.326   5.149
10847SOL     OW34547   1.845   7.121  10.292
10847SOL    HW134548   1.781   7.132  10.221
10847SOL    HW234549   1.815   7.180  10.361
10848SOL     OW34550   9.700  10.117   9.020
10848SOL    HW134551   9.696  10.091   9.112
10848SOL    HW234552   9.759  10.053   8.980
10849SOL     OW34553   4.364   4.591   2.644
10849SOL    HW134554   4.274   4.558   2.641
10849SOL    HW234555   4.408   4.536   2.709
10850SOL     OW34556   3.498   1.679   3.441
10850SOL    HW134557   3.552   1.699   3.365
10850SOL    HW234558   3.504   1.584   3.449
10851SOL     OW34559   5.748  10.328   0.550
10851SOL    HW134560   5.812  10.265   0.517
10851SOL    HW234561   5.792  10.370   0.624
10852SOL     OW34562   4.445   2.951  11.024
10852SOL    HW134563   4.502   3.027  11.015
10852SOL    HW234564   4.402   2.963  11.108
10853SOL     OW34565   4.067   2.667   5.588
10853SOL    HW134566   4.018   2.742   5.622
10853SOL    HW234567   4.130   2.705   5.527
10854SOL     OW34568   0.846   2.832   7.329
10854SOL    HW134569   0.854   2.924   7.306
10854SOL    HW234570   0.758   2.807   7.301
10855SOL     OW34571   2.361   5.265   0.389
10855SOL    HW134572   2.412   5.190   0.357
10855SOL    HW234573   2.330   5.238   0.475
10856SOL     OW34574   5.162   3.436   3.521
10856SOL    HW134575   5.236   3.427   3.581
10856SOL    HW234576   5.094   3.381   3.559
10857SOL     OW34577   0.804   9.586   2.798
10857SOL    HW134578   0.748   9.510   2.815
10857SOL    HW234579   0.833   9.575   2.707
10858SOL     OW34580   4.539   8.309  10.612
10858SOL    HW134581   4.604   8.240  10.627
10858SOL    HW234582   4.490   8.279  10.535
10859SOL     OW34583   0.666   1.819   9.072
10859SOL    HW134584   0.582   1.776   9.086
10859SOL    HW234585   0.687   1.800   8.980
10860SOL     OW34586   2.403   0.465   3.186
10860SOL    HW134587   2.494   0.446   3.208
10860SOL    HW234588   2.352   0.409   3.244
10861SOL     OW34589   8.053   6.269   7.604
10861SOL    HW134590   8.004   6.316   7.671
10861SOL    HW234591   8.000   6.278   7.525
10862SOL     OW34592   4.283   7.890   0.200
10862SOL    HW134593   4.357   7.943   0.228
10862SOL    HW234594   4.268   7.916   0.109
10863SOL     OW34595   4.120   9.517   4.058
10863SOL    HW134596   4.206   9.482   4.081
10863SOL    HW234597   4.059   9.448   4.084
10864SOL     OW34598   0.885   8.962   8.708
10864SOL    HW134599   0.909   8.936   8.797
10864SOL    HW234600   0.917   8.890   8.652
10865SOL     OW34601   3.191   6.496   6.894
10865SOL    HW134602   3.212   6.573   6.946
10865SOL    HW234603   3.268   6.482   6.838
10866SOL     OW34604   9.781   3.008   0.756
10866SOL    HW134605   9.772   3.016   0.850
10866SOL    HW234606   9.754   2.918   0.737
10867SOL     OW34607   1.439   0.357  11.037
10867SOL    HW134608   1.356   0.395  11.008
10867SOL    HW234609   1.456   0.287  10.974
10868SOL     OW34610   9.883   9.271   3.544
10868SOL    HW134611   9.796   9.258   3.581
10868SOL    HW234612   9.932   9.316   3.612
10869SOL     OW34613   6.579   0.575   5.160
10869SOL    HW134614   6.488   0.544   5.159
10869SOL    HW234615   6.625   0.512   5.215
10870SOL     OW34616   9.482   4.688   6.950
10870SOL    HW134617   9.460   4.702   6.858
10870SOL    HW234618   9.546   4.756   6.970
10871SOL     OW34619   1.236   8.662  10.605
10871SOL    HW134620   1.224   8.632  10.695
10871SOL    HW234621   1.295   8.597  10.566
10872SOL     OW34622   6.551   7.913   6.520
10872SOL    HW134623   6.631   7.860   6.520
10872SOL    HW234624   6.534   7.931   6.427
10873SOL     OW34625   8.086   3.708  10.021
10873SOL    HW134626   8.174   3.670  10.030
10873SOL    HW234627   8.036   3.671  10.093
10874SOL     OW34628   6.541   4.206  10.723
10874SOL    HW134629   6.622   4.167  10.757
10874SOL    HW234630   6.571   4.277  10.666
10875SOL     OW34631  10.669   9.855   2.049
10875SOL    HW134632  10.599   9.847   1.984
10875SOL    HW234633  10.632   9.818   2.129
10876SOL     OW34634   9.756  10.220   7.610
10876SOL    HW134635   9.697  10.275   7.662
10876SOL    HW234636   9.698  10.172   7.551
10877SOL     OW34637   5.520   5.196   2.598
10877SOL    HW134638   5.594   5.221   2.543
10877SOL    HW234639   5.531   5.102   2.611
10878SOL     OW34640   3.294   5.576  10.807
10878SOL    HW134641   3.225   5.597  10.870
10878SOL    HW234642   3.294   5.650  10.746
10879SOL     OW34643   5.116   2.820   8.015
10879SOL    HW134644   5.175   2.894   8.029
10879SOL    HW234645   5.127   2.765   8.092
10880SOL     OW34646  10.298   6.803   8.311
10880SOL    HW134647  10.203   6.812   8.300
10880SOL    HW234648  10.328   6.765   8.228
10881SOL     OW34649   6.469   8.128   0.862
10881SOL    HW134650   6.433   8.061   0.920
10881SOL    HW234651   6.447   8.097   0.774
10882SOL     OW34652   9.445   2.437   3.690
10882SOL    HW134653   9.457   2.529   3.712
10882SOL    HW234654   9.383   2.404   3.755
10883SOL     OW34655   7.849   3.186   8.962
10883SOL    HW134656   7.759   3.219   8.961
10883SOL    HW234657   7.894   3.236   8.894
10884SOL     OW34658   4.558   2.635  11.078
10884SOL    HW134659   4.479   2.641  11.131
10884SOL    HW234660   4.601   2.719  11.088
10885SOL     OW34661  11.068   4.671   2.835
10885SOL    HW134662  11.047   4.710   2.750
10885SOL    HW234663  10.999   4.701   2.894
10886SOL     OW34664   4.547   1.792   9.882
10886SOL    HW134665   4.455   1.765   9.884
10886SOL    HW234666   4.549   1.865   9.821
10887SOL     OW34667   7.149   2.682  10.194
10887SOL    HW134668   7.105   2.693  10.278
10887SOL    HW234669   7.078   2.682  10.129
10888SOL     OW34670   0.978   2.431   7.515
10888SOL    HW134671   1.015   2.411   7.429
10888SOL    HW234672   0.889   2.395   7.512
10889SOL     OW34673  10.367   4.285   6.384
10889SOL    HW134674  10.418   4.365   6.393
10889SOL    HW234675  10.314   4.299   6.305
10890SOL     OW34676   1.001   8.032  10.328
10890SOL    HW134677   0.991   8.049  10.421
10890SOL    HW234678   0.913   8.009  10.298
10891SOL     OW34679   3.498   3.716   0.633
10891SOL    HW134680   3.556   3.789   0.655
10891SOL    HW234681   3.557   3.643   0.615
10892SOL     OW34682   0.743   1.820   2.581
10892SOL    HW134683   0.736   1.888   2.514
10892SOL    HW234684   0.795   1.859   2.651
10893SOL     OW34685  10.760   5.530   0.118
10893SOL    HW134686  10.678   5.578   0.129
10893SOL    HW234687  10.828   5.591   0.145
10894SOL     OW34688   9.777   4.406   2.471
10894SOL    HW134689   9.723   4.419   2.393
10894SOL    HW234690   9.854   4.359   2.438
10895SOL     OW34691   1.984   8.742   5.650
10895SOL    HW134692   2.035   8.730   5.730
10895SOL    HW234693   1.966   8.836   5.647
10896SOL     OW34694   5.749   7.980   6.391
10896SOL    HW134695   5.774   8.063   6.350
10896SOL    HW234696   5.799   7.978   6.472
10897SOL     OW34697   1.772   8.232   6.987
10897SOL    HW134698   1.861   8.196   6.982
10897SOL    HW234699   1.772   8.303   6.923
10898SOL     OW34700   1.864   9.562  10.881
10898SOL    HW134701   1.833   9.530  10.796
10898SOL    HW234702   1.785   9.575  10.932
10899SOL     OW34703   8.806   3.817   7.491
10899SOL    HW134704   8.749   3.741   7.478
10899SOL    HW234705   8.764   3.867   7.560
10900SOL     OW34706   0.402   9.359   3.109
10900SOL    HW134707   0.352   9.280   3.129
10900SOL    HW234708   0.369   9.425   3.169
10901SOL     OW34709   6.796   5.823   7.253
10901SOL    HW134710   6.727   5.853   7.194
10901SOL    HW234711   6.764   5.844   7.340
10902SOL     OW34712  10.788   6.326   8.405
10902SOL    HW134713  10.789   6.327   8.500
10902SOL    HW234714  10.758   6.238   8.382
10903SOL     OW34715   1.745   3.849   7.159
10903SOL    HW134716   1.839   3.843   7.177
10903SOL    HW234717   1.741   3.873   7.066
10904SOL     OW34718   5.070   4.363   1.174
10904SOL    HW134719   4.998   4.350   1.112
10904SOL    HW234720   5.124   4.432   1.135
10905SOL     OW34721   3.152   4.161   7.674
10905SOL    HW134722   3.210   4.175   7.599
10905SOL    HW234723   3.155   4.243   7.722
10906SOL     OW34724   0.654   2.527  10.205
10906SOL    HW134725   0.700   2.444  10.190
10906SOL    HW234726   0.707   2.572  10.271
10907SOL     OW34727   4.829   0.376  10.284
10907SOL    HW134728   4.858   0.424  10.206
10907SOL    HW234729   4.833   0.440  10.355
10908SOL     OW34730  10.903   7.376   7.701
10908SOL    HW134731  10.994   7.345   7.692
10908SOL    HW234732  10.869   7.329   7.777
10909SOL     OW34733   2.569   3.378   1.278
10909SOL    HW134734   2.537   3.289   1.261
10909SOL    HW234735   2.570   3.419   1.191
10910SOL     OW34736   6.608   1.486   7.042
10910SOL    HW134737   6.648   1.408   7.081
10910SOL    HW234738   6.543   1.515   7.106
10911SOL     OW34739   4.058   9.176   7.039
10911SOL    HW134740   4.030   9.101   7.092
10911SOL    HW234741   4.106   9.232   7.100
10912SOL     OW34742   8.154   9.702   2.885
10912SOL    HW134743   8.222   9.658   2.936
10912SOL    HW234744   8.131   9.639   2.816
10913SOL     OW34745   3.990   5.550  10.976
10913SOL    HW134746   3.989   5.583  11.066
10913SOL    HW234747   4.045   5.612  10.928
10914SOL     OW34748   2.314   4.534   7.693
10914SOL    HW134749   2.290   4.556   7.603
10914SOL    HW234750   2.275   4.448   7.707
10915SOL     OW34751   3.906   4.235   5.955
10915SOL    HW134752   3.942   4.323   5.950
10915SOL    HW234753   3.964   4.182   5.899
10916SOL     OW34754   4.685   2.534   7.046
10916SOL    HW134755   4.704   2.625   7.026
10916SOL    HW234756   4.768   2.488   7.032
10917SOL     OW34757  10.997   2.167   6.063
10917SOL    HW134758  10.951   2.135   5.985
10917SOL    HW234759  10.961   2.115   6.135
10918SOL     OW34760   2.011   2.000   1.066
10918SOL    HW134761   2.048   1.977   1.151
10918SOL    HW234762   2.039   2.090   1.051
10919SOL     OW34763   9.207   3.562   1.542
10919SOL    HW134764   9.199   3.636   1.601
10919SOL    HW234765   9.129   3.567   1.486
10920SOL     OW34766   1.032   5.205   5.015
10920SOL    HW134767   0.995   5.224   5.101
10920SOL    HW234768   1.108   5.150   5.033
10921SOL     OW34769   3.415   3.454   2.239
10921SOL    HW134770   3.430   3.547   2.253
10921SOL    HW234771   3.484   3.427   2.178
10922SOL     OW34772   4.983   0.838   3.220
10922SOL    HW134773   5.073   0.860   3.196
10922SOL    HW234774   4.932   0.916   3.197
10923SOL     OW34775   3.436   4.310   2.542
10923SOL    HW134776   3.462   4.379   2.481
10923SOL    HW234777   3.340   4.311   2.540
10924SOL     OW34778   1.368   8.543   8.550
10924SOL    HW134779   1.333   8.630   8.568
10924SOL    HW234780   1.299   8.483   8.579
10925SOL     OW34781   4.954   9.638   6.798
10925SOL    HW134782   4.905   9.720   6.801
10925SOL    HW234783   5.005   9.638   6.879
10926SOL     OW34784  10.492  10.096   8.039
10926SOL    HW134785  10.461  10.012   8.074
10926SOL    HW234786  10.456  10.100   7.950
10927SOL     OW34787   0.592   3.812   3.238
10927SOL    HW134788   0.570   3.729   3.280
10927SOL    HW234789   0.677   3.836   3.276
10928SOL     OW34790   2.057   1.145   8.192
10928SOL    HW134791   2.012   1.075   8.239
10928SOL    HW234792   2.024   1.139   8.102
10929SOL     OW34793   5.692   8.132   0.311
10929SOL    HW134794   5.704   8.173   0.225
10929SOL    HW234795   5.647   8.198   0.363
10930SOL     OW34796   0.825   1.237  10.769
10930SOL    HW134797   0.915   1.269  10.772
10930SOL    HW234798   0.778   1.302  10.717
10931SOL     OW34799   3.384   8.026   7.886
10931SOL    HW134800   3.329   8.039   7.963
10931SOL    HW234801   3.427   7.942   7.901
10932SOL     OW34802   1.432   0.646   8.404
10932SOL    HW134803   1.479   0.725   8.429
10932SOL    HW234804   1.419   0.598   8.486
10933SOL     OW34805   2.661   5.650   6.948
10933SOL    HW134806   2.692   5.734   6.916
10933SOL    HW234807   2.737   5.592   6.941
10934SOL     OW34808   3.624   5.215   2.060
10934SOL    HW134809   3.650   5.303   2.035
10934SOL    HW234810   3.576   5.226   2.142
10935SOL     OW34811   0.890   7.270   7.586
10935SOL    HW134812   0.830   7.332   7.626
10935SOL    HW234813   0.947   7.242   7.657
10936SOL     OW34814   5.363   4.252  10.534
10936SOL    HW134815   5.446   4.295  10.512
10936SOL    HW234816   5.353   4.184  10.466
10937SOL     OW34817  10.545   5.920   7.501
10937SOL    HW134818  10.546   6.007   7.540
10937SOL    HW234819  10.608   5.925   7.428
10938SOL     OW34820   7.356   2.846  10.054
10938SOL    HW134821   7.307   2.905   9.997
10938SOL    HW234822   7.289   2.799  10.103
10939SOL     OW34823   3.187   3.342   4.526
10939SOL    HW134824   3.131   3.360   4.450
10939SOL    HW234825   3.200   3.427   4.567
10940SOL     OW34826   9.336  10.757   8.992
10940SOL    HW134827   9.366  10.669   9.016
10940SOL    HW234828   9.241  10.748   8.984
10941SOL     OW34829   3.196   0.174  10.464
10941SOL    HW134830   3.170   0.115  10.535
10941SOL    HW234831   3.282   0.142  10.437
10942SOL     OW34832   1.216   4.676   6.580
10942SOL    HW134833   1.149   4.738   6.552
10942SOL    HW234834   1.187   4.647   6.666
10943SOL     OW34835   3.161   3.169   0.230
10943SOL    HW134836   3.194   3.111   0.161
10943SOL    HW234837   3.109   3.234   0.183
10944SOL     OW34838   6.223   5.610   2.037
10944SOL    HW134839   6.301   5.634   1.986
10944SOL    HW234840   6.151   5.655   1.993
10945SOL     OW34841   0.944   0.184   4.137
10945SOL    HW134842   1.016   0.159   4.079
10945SOL    HW234843   0.980   0.173   4.225
10946SOL     OW34844   5.107   3.214   0.871
10946SOL    HW134845   5.193   3.210   0.913
10946SOL    HW234846   5.126   3.200   0.778
10947SOL     OW34847   4.249   2.841   8.820
10947SOL    HW134848   4.167   2.809   8.783
10947SOL    HW234849   4.275   2.912   8.762
10948SOL     OW34850  11.034   4.967   6.345
10948SOL    HW134851  11.069   4.967   6.256
10948SOL    HW234852  11.072   4.889   6.386
10949SOL     OW34853   5.312   2.037   6.208
10949SOL    HW134854   5.327   2.109   6.146
10949SOL    HW234855   5.365   2.059   6.284
10950SOL     OW34856  10.361   2.122   2.596
10950SOL    HW134857  10.317   2.038   2.609
10950SOL    HW234858  10.442   2.115   2.647
10951SOL     OW34859  10.914   1.494   0.151
10951SOL    HW134860  10.822   1.490   0.176
10951SOL    HW234861  10.940   1.584   0.170
10952SOL     OW34862   4.188   3.043   6.398
10952SOL    HW134863   4.185   3.128   6.441
10952SOL    HW234864   4.236   2.987   6.459
10953SOL     OW34865   7.534   5.160   3.112
10953SOL    HW134866   7.516   5.100   3.184
10953SOL    HW234867   7.480   5.127   3.040
10954SOL     OW34868   7.202   4.300   8.472
10954SOL    HW134869   7.176   4.391   8.461
10954SOL    HW234870   7.218   4.269   8.383
10955SOL     OW34871   6.056   4.562   4.197
10955SOL    HW134872   5.977   4.602   4.161
10955SOL    HW234873   6.092   4.628   4.255
10956SOL     OW34874  10.875   6.487  10.243
10956SOL    HW134875  10.799   6.439  10.209
10956SOL    HW234876  10.882   6.460  10.334
10957SOL     OW34877   7.904   0.848   2.789
10957SOL    HW134878   7.980   0.789   2.785
10957SOL    HW234879   7.915   0.906   2.714
10958SOL     OW34880   0.628   0.297   5.475
10958SOL    HW134881   0.588   0.295   5.388
10958SOL    HW234882   0.617   0.208   5.508
10959SOL     OW34883  10.509   9.404   9.237
10959SOL    HW134884  10.527   9.489   9.196
10959SOL    HW234885  10.546   9.340   9.175
10960SOL     OW34886   5.338   6.624   0.411
10960SOL    HW134887   5.355   6.704   0.459
10960SOL    HW234888   5.263   6.584   0.455
10961SOL     OW34889   1.616   9.966   3.399
10961SOL    HW134890   1.528   9.949   3.433
10961SOL    HW234891   1.633  10.058   3.419
10962SOL     OW34892  10.341  10.146   6.226
10962SOL    HW134893  10.402  10.213   6.197
10962SOL    HW234894  10.262  10.194   6.250
10963SOL     OW34895  10.651   5.844   9.393
10963SOL    HW134896  10.730   5.792   9.410
10963SOL    HW234897  10.618   5.810   9.309
10964SOL     OW34898   8.448   3.127   0.718
10964SOL    HW134899   8.443   3.158   0.627
10964SOL    HW234900   8.357   3.127   0.748
10965SOL     OW34901  10.135   8.736   7.298
10965SOL    HW134902  10.083   8.766   7.223
10965SOL    HW234903  10.120   8.641   7.301
10966SOL     OW34904   4.858   3.975   1.997
10966SOL    HW134905   4.866   4.033   1.921
10966SOL    HW234906   4.844   3.888   1.959
10967SOL     OW34907   3.892   6.071   3.216
10967SOL    HW134908   3.857   5.982   3.222
10967SOL    HW234909   3.986   6.058   3.201
10968SOL     OW34910   4.956   6.158   9.693
10968SOL    HW134911   4.989   6.168   9.782
10968SOL    HW234912   4.899   6.233   9.680
10969SOL     OW34913   2.106   4.594   1.769
10969SOL    HW134914   2.060   4.514   1.742
10969SOL    HW234915   2.079   4.660   1.705
10970SOL     OW34916   0.451   1.210   3.423
10970SOL    HW134917   0.478   1.119   3.409
10970SOL    HW234918   0.359   1.212   3.397
10971SOL     OW34919   5.196   7.179   8.714
10971SOL    HW134920   5.166   7.089   8.727
10971SOL    HW234921   5.238   7.178   8.628
10972SOL     OW34922   3.627   4.980   7.096
10972SOL    HW134923   3.688   4.921   7.051
10972SOL    HW234924   3.636   4.957   7.188
10973SOL     OW34925   9.191   4.191   0.531
10973SOL    HW134926   9.265   4.221   0.477
10973SOL    HW234927   9.132   4.148   0.469
10974SOL     OW34928   3.851   4.006  10.685
10974SOL    HW134929   3.935   4.028  10.726
10974SOL    HW234930   3.852   4.052  10.601
10975SOL     OW34931   6.029   1.157   7.172
10975SOL    HW134932   6.055   1.141   7.081
10975SOL    HW234933   5.997   1.247   7.173
10976SOL     OW34934   3.097   1.322   9.908
10976SOL    HW134935   3.151   1.277   9.843
10976SOL    HW234936   3.011   1.280   9.900
10977SOL     OW34937   2.135   0.041   4.575
10977SOL    HW134938   2.085   0.014   4.497
10977SOL    HW234939   2.172   0.126   4.551
10978SOL     OW34940   0.226   3.983   6.973
10978SOL    HW134941   0.264   3.978   6.885
10978SOL    HW234942   0.141   3.940   6.965
10979SOL     OW34943   2.540   6.149   1.128
10979SOL    HW134944   2.484   6.156   1.050
10979SOL    HW234945   2.608   6.215   1.115
10980SOL     OW34946   9.745   5.968   4.456
10980SOL    HW134947   9.701   5.889   4.425
10980SOL    HW234948   9.833   5.939   4.480
10981SOL     OW34949  10.553   5.672   7.665
10981SOL    HW134950  10.524   5.690   7.754
10981SOL    HW234951  10.543   5.755   7.619
10982SOL     OW34952   2.949   2.632   2.191
10982SOL    HW134953   3.027   2.590   2.155
10982SOL    HW234954   2.983   2.702   2.247
10983SOL     OW34955   5.744   4.278   9.421
10983SOL    HW134956   5.788   4.360   9.400
10983SOL    HW234957   5.672   4.303   9.478
10984SOL     OW34958   2.295   2.392   8.809
10984SOL    HW134959   2.243   2.327   8.856
10984SOL    HW234960   2.373   2.405   8.863
10985SOL     OW34961   1.143   0.118   1.336
10985SOL    HW134962   1.224   0.104   1.287
10985SOL    HW234963   1.123   0.032   1.373
10986SOL     OW34964   0.798   8.662   6.847
10986SOL    HW134965   0.807   8.620   6.761
10986SOL    HW234966   0.722   8.719   6.837
10987SOL     OW34967   9.732   0.579   4.657
10987SOL    HW134968   9.776   0.594   4.740
10987SOL    HW234969   9.641   0.564   4.680
10988SOL     OW34970  10.223   4.719   0.909
10988SOL    HW134971  10.167   4.796   0.905
10988SOL    HW234972  10.242   4.699   0.817
10989SOL     OW34973   0.602   7.923   4.364
10989SOL    HW134974   0.676   7.971   4.402
10989SOL    HW234975   0.638   7.837   4.342
10990SOL     OW34976   3.731   7.181   0.297
10990SOL    HW134977   3.648   7.206   0.336
10990SOL    HW234978   3.747   7.092   0.329
10991SOL     OW34979  10.763   6.879   4.838
10991SOL    HW134980  10.843   6.878   4.891
10991SOL    HW234981  10.694   6.908   4.898
10992SOL     OW34982   2.515   7.668   8.852
10992SOL    HW134983   2.485   7.602   8.789
10992SOL    HW234984   2.459   7.655   8.928
10993SOL     OW34985   5.158   2.691   8.251
10993SOL    HW134986   5.085   2.721   8.304
10993SOL    HW234987   5.137   2.599   8.231
10994SOL     OW34988   7.227  10.220   1.161
10994SOL    HW134989   7.175  10.148   1.125
10994SOL    HW234990   7.168  10.265   1.220
10995SOL     OW34991   4.755   7.899   0.108
10995SOL    HW134992   4.741   7.854   0.025
10995SOL    HW234993   4.739   7.831   0.174
10996SOL     OW34994   4.983   8.005   5.047
10996SOL    HW134995   5.044   7.950   4.996
10996SOL    HW234996   4.908   7.948   5.064
10997SOL     OW34997   4.816   2.674   7.938
10997SOL    HW134998   4.837   2.581   7.928
10997SOL    HW234999   4.888   2.720   7.895
10998SOL     OW35000  10.514   2.347   8.635
10998SOL    HW135001  10.580   2.317   8.698
10998SOL    HW235002  10.483   2.266   8.593
10999SOL     OW35003   9.951   0.478   0.053
10999SOL    HW135004   9.944   0.550   0.116
10999SOL    HW235005   9.865   0.436   0.056
11000SOL     OW35006   2.911   4.370  10.947
11000SOL    HW135007   2.996   4.325  10.944
11000SOL    HW235008   2.856   4.319  10.887
11001SOL     OW35009   9.417   1.034   9.236
11001SOL    HW135010   9.409   1.024   9.141
11001SOL    HW235011   9.511   1.029   9.252
11002SOL     OW35012   3.271   7.438   9.794
11002SOL    HW135013   3.226   7.400   9.718
11002SOL    HW235014   3.361   7.406   9.786
11003SOL     OW35015   0.662   8.299  11.032
11003SOL    HW135016   0.749   8.266  11.053
11003SOL    HW235017   0.665   8.317  10.938
11004SOL     OW35018   3.278  10.934   8.003
11004SOL    HW135019   3.369  10.932   7.973
11004SOL    HW235020   3.247  10.844   7.993
11005SOL     OW35021   3.940  10.438   6.978
11005SOL    HW135022   3.870  10.373   6.990
11005SOL    HW235023   4.021  10.389   6.994
11006SOL     OW35024   3.517   6.015  10.538
11006SOL    HW135025   3.487   6.105  10.543
11006SOL    HW235026   3.612   6.021  10.531
11007SOL     OW35027   1.223   6.681   0.137
11007SOL    HW135028   1.206   6.750   0.201
11007SOL    HW235029   1.223   6.600   0.189
11008SOL     OW35030   5.057   6.178   0.994
11008SOL    HW135031   5.065   6.270   1.018
11008SOL    HW235032   5.130   6.135   1.038
11009SOL     OW35033   8.391   0.690   7.125
11009SOL    HW135034   8.303   0.692   7.162
11009SOL    HW235035   8.411   0.596   7.117
11010SOL     OW35036   1.011   4.687   5.534
11010SOL    HW135037   1.033   4.594   5.544
11010SOL    HW235038   1.054   4.713   5.452
11011SOL     OW35039   5.365   1.588  10.657
11011SOL    HW135040   5.458   1.591  10.633
11011SOL    HW235041   5.322   1.645  10.593
11012SOL     OW35042   2.208   3.065  10.232
11012SOL    HW135043   2.169   3.132  10.176
11012SOL    HW235044   2.144   2.994  10.233
11013SOL     OW35045   3.059   4.490   2.228
11013SOL    HW135046   3.135   4.529   2.186
11013SOL    HW235047   3.023   4.559   2.283
11014SOL     OW35048   0.723   9.995   0.856
11014SOL    HW135049   0.687   9.963   0.939
11014SOL    HW235050   0.653  10.049   0.819
11015SOL     OW35051  10.796   1.631   3.814
11015SOL    HW135052  10.827   1.692   3.881
11015SOL    HW235053  10.701   1.627   3.827
11016SOL     OW35054  10.271   2.791   8.938
11016SOL    HW135055  10.208   2.782   9.009
11016SOL    HW235056  10.265   2.708   8.890
11017SOL     OW35057   0.329   2.875  10.738
11017SOL    HW135058   0.244   2.856  10.777
11017SOL    HW235059   0.309   2.931  10.663
11018SOL     OW35060   0.671   2.436   8.267
11018SOL    HW135061   0.639   2.512   8.218
11018SOL    HW235062   0.766   2.440   8.259
11019SOL     OW35063   3.040   0.354   8.227
11019SOL    HW135064   3.103   0.333   8.296
11019SOL    HW235065   3.046   0.279   8.167
11020SOL     OW35066   4.407   4.588   8.787
11020SOL    HW135067   4.383   4.506   8.742
11020SOL    HW235068   4.480   4.623   8.735
11021SOL     OW35069  10.458   8.920   0.375
11021SOL    HW135070  10.394   8.912   0.304
11021SOL    HW235071  10.449   8.838   0.424
11022SOL     OW35072   4.493   5.028   8.295
11022SOL    HW135073   4.475   5.061   8.383
11022SOL    HW235074   4.432   5.076   8.238
11023SOL     OW35075   9.280   0.433   4.898
11023SOL    HW135076   9.312   0.361   4.952
11023SOL    HW235077   9.185   0.431   4.909
11024SOL     OW35078   2.136   4.965   2.536
11024SOL    HW135079   2.106   4.954   2.626
11024SOL    HW235080   2.107   4.885   2.491
11025SOL     OW35081   1.507   2.487   9.753
11025SOL    HW135082   1.423   2.442   9.760
11025SOL    HW235083   1.567   2.420   9.719
11026SOL     OW35084   0.726   2.929   8.134
11026SOL    HW135085   0.650   2.964   8.087
11026SOL    HW235086   0.689   2.866   8.196
11027SOL     OW35087   1.359   0.055   7.707
11027SOL    HW135088   1.323   0.031   7.621
11027SOL    HW235089   1.411   0.133   7.690
11028SOL     OW35090   7.424   1.997   4.694
11028SOL    HW135091   7.461   2.085   4.687
11028SOL    HW235092   7.421   1.979   4.788
11029SOL     OW35093   0.881   3.649   6.248
11029SOL    HW135094   0.901   3.676   6.158
11029SOL    HW235095   0.965   3.619   6.283
11030SOL     OW35096   4.852  10.684   3.712
11030SOL    HW135097   4.922  10.709   3.772
11030SOL    HW235098   4.898  10.652   3.634
11031SOL     OW35099   6.028   1.583   0.246
11031SOL    HW135100   5.957   1.550   0.191
11031SOL    HW235101   6.089   1.622   0.184
11032SOL     OW35102   2.491   4.604   2.653
11032SOL    HW135103   2.575   4.595   2.607
11032SOL    HW235104   2.444   4.671   2.604
11033SOL     OW35105   5.019   0.147   8.609
11033SOL    HW135106   5.110   0.118   8.602
11033SOL    HW235107   5.009   0.212   8.539
11034SOL     OW35108   3.143   9.634   3.184
11034SOL    HW135109   3.168   9.714   3.230
11034SOL    HW235110   3.172   9.563   3.241
11035SOL     OW35111   3.832   3.359   3.230
11035SOL    HW135112   3.841   3.429   3.294
11035SOL    HW235113   3.755   3.383   3.179
11036SOL     OW35114   2.838   0.449   8.019
11036SOL    HW135115   2.774   0.490   8.077
11036SOL    HW235116   2.912   0.427   8.075
11037SOL     OW35117   0.169   4.025   5.467
11037SOL    HW135118   0.100   4.001   5.404
11037SOL    HW235119   0.223   3.946   5.475
11038SOL     OW35120   4.874   1.061   2.815
11038SOL    HW135121   4.862   1.135   2.756
11038SOL    HW235122   4.829   0.988   2.771
11039SOL     OW35123   5.929   3.854   1.576
11039SOL    HW135124   5.906   3.813   1.492
11039SOL    HW235125   5.850   3.847   1.628
11040SOL     OW35126   6.381   9.039   0.431
11040SOL    HW135127   6.405   8.955   0.392
11040SOL    HW235128   6.307   9.019   0.488
11041SOL     OW35129   2.153   4.414  10.874
11041SOL    HW135130   2.231   4.414  10.818
11041SOL    HW235131   2.080   4.410  10.812
11042SOL     OW35132   4.544   0.286  10.966
11042SOL    HW135133   4.549   0.372  11.008
11042SOL    HW235134   4.519   0.305  10.875
11043SOL     OW35135   9.393   1.880   2.308
11043SOL    HW135136   9.427   1.821   2.375
11043SOL    HW235137   9.306   1.845   2.287
11044SOL     OW35138   6.863   8.696   9.376
11044SOL    HW135139   6.853   8.679   9.282
11044SOL    HW235140   6.909   8.619   9.409
11045SOL     OW35141   2.457   3.774   1.001
11045SOL    HW135142   2.443   3.786   0.907
11045SOL    HW235143   2.374   3.799   1.041
11046SOL     OW35144   6.571   7.701   8.867
11046SOL    HW135145   6.494   7.644   8.866
11046SOL    HW235146   6.625   7.667   8.938
11047SOL     OW35147   7.168   2.208   3.840
11047SOL    HW135148   7.230   2.230   3.770
11047SOL    HW235149   7.197   2.122   3.871
11048SOL     OW35150   2.422   1.785   1.496
11048SOL    HW135151   2.339   1.783   1.542
11048SOL    HW235152   2.424   1.871   1.454
11049SOL     OW35153   2.905   0.076   2.476
11049SOL    HW135154   2.923   0.130   2.553
11049SOL    HW235155   2.953   0.119   2.405
11050SOL     OW35156   5.462   7.186  10.240
11050SOL    HW135157   5.399   7.258  10.249
11050SOL    HW235158   5.430   7.118  10.300
11051SOL     OW35159   2.258   2.706   7.120
11051SOL    HW135160   2.171   2.738   7.096
11051SOL    HW235161   2.276   2.636   7.057
11052SOL     OW35162   5.418   5.995   9.178
11052SOL    HW135163   5.358   6.058   9.217
11052SOL    HW235164   5.504   6.038   9.180
11053SOL     OW35165   3.255   3.809   1.212
11053SOL    HW135166   3.210   3.816   1.296
11053SOL    HW235167   3.249   3.716   1.190
11054SOL     OW35168   1.961   2.163   3.399
11054SOL    HW135169   1.939   2.220   3.472
11054SOL    HW235170   1.981   2.078   3.439
11055SOL     OW35171   0.964   9.184   1.555
11055SOL    HW135172   0.923   9.270   1.555
11055SOL    HW235173   0.893   9.123   1.576
11056SOL     OW35174   7.003   2.908   2.073
11056SOL    HW135175   6.911   2.882   2.074
11056SOL    HW235176   7.002   3.001   2.051
11057SOL     OW35177   5.346   2.543   7.374
11057SOL    HW135178   5.281   2.601   7.334
11057SOL    HW235179   5.370   2.482   7.304
11058SOL     OW35180   5.592   2.710  10.100
11058SOL    HW135181   5.538   2.774  10.054
11058SOL    HW235182   5.598   2.636  10.039
11059SOL     OW35183   1.612   8.436   8.787
11059SOL    HW135184   1.543   8.501   8.793
11059SOL    HW235185   1.612   8.410   8.695
11060SOL     OW35186   1.459   4.778   1.444
11060SOL    HW135187   1.396   4.706   1.434
11060SOL    HW235188   1.540   4.735   1.471
11061SOL     OW35189   6.899   3.145   1.418
11061SOL    HW135190   6.809   3.172   1.432
11061SOL    HW235191   6.949   3.226   1.416
11062SOL     OW35192   6.606   4.180  10.352
11062SOL    HW135193   6.611   4.268  10.315
11062SOL    HW235194   6.597   4.123  10.275
11063SOL     OW35195   1.964  11.085   5.140
11063SOL    HW135196   1.940  11.001   5.100
11063SOL    HW235197   1.915  11.150   5.090
11064SOL     OW35198   8.057   2.685   4.874
11064SOL    HW135199   7.963   2.701   4.877
11064SOL    HW235200   8.086   2.729   4.794
11065SOL     OW35201   1.894   4.013   3.183
11065SOL    HW135202   1.878   4.075   3.254
11065SOL    HW235203   1.906   3.928   3.226
11066SOL     OW35204   4.749   1.086   0.137
11066SOL    HW135205   4.750   0.996   0.170
11066SOL    HW235206   4.733   1.139   0.215
11067SOL     OW35207   6.457   0.991   9.464
11067SOL    HW135208   6.362   0.996   9.465
11067SOL    HW235209   6.478   0.944   9.383
11068SOL     OW35210  10.507   0.323   4.955
11068SOL    HW135211  10.434   0.307   5.015
11068SOL    HW235212  10.531   0.236   4.922
11069SOL     OW35213   7.204   0.308   6.421
11069SOL    HW135214   7.232   0.263   6.341
11069SOL    HW235215   7.214   0.242   6.490
11070SOL     OW35216   5.635   7.204   8.101
11070SOL    HW135217   5.705   7.260   8.067
11070SOL    HW235218   5.554   7.245   8.071
11071SOL     OW35219   4.143   8.430   1.489
11071SOL    HW135220   4.052   8.432   1.459
11071SOL    HW235221   4.140   8.467   1.577
11072SOL     OW35222   4.439   3.800   6.862
11072SOL    HW135223   4.354   3.774   6.898
11072SOL    HW235224   4.455   3.736   6.792
11073SOL     OW35225   4.573   2.521   9.718
11073SOL    HW135226   4.620   2.506   9.636
11073SOL    HW235227   4.614   2.598   9.755
11074SOL     OW35228   8.391   5.491   3.338
11074SOL    HW135229   8.443   5.570   3.353
11074SOL    HW235230   8.339   5.480   3.418
11075SOL     OW35231   2.393  10.834   9.061
11075SOL    HW135232   2.409  10.744   9.033
11075SOL    HW235233   2.298  10.845   9.054
11076SOL     OW35234   8.066   4.570   8.956
11076SOL    HW135235   8.134   4.627   8.991
11076SOL    HW235236   8.049   4.507   9.026
11077SOL     OW35237   4.250   9.070  10.339
11077SOL    HW135238   4.246   9.003  10.407
11077SOL    HW235239   4.271   9.150  10.386
11078SOL     OW35240   2.006   8.812   0.810
11078SOL    HW135241   1.999   8.893   0.760
11078SOL    HW235242   1.986   8.837   0.900
11079SOL     OW35243   2.138   9.076   1.548
11079SOL    HW135244   2.143   8.997   1.493
11079SOL    HW235245   2.196   9.057   1.621
11080SOL     OW35246   1.078   7.521   0.523
11080SOL    HW135247   1.061   7.615   0.518
11080SOL    HW235248   1.041   7.486   0.441
11081SOL     OW35249   2.759   5.271   4.729
11081SOL    HW135250   2.785   5.261   4.637
11081SOL    HW235251   2.806   5.349   4.759
11082SOL     OW35252   6.240   7.312  10.061
11082SOL    HW135253   6.244   7.309  10.156
11082SOL    HW235254   6.164   7.367  10.042
11083SOL     OW35255   4.098   2.945   9.251
11083SOL    HW135256   4.103   2.986   9.164
11083SOL    HW235257   4.016   2.896   9.249
11084SOL     OW35258  10.214   1.258   8.269
11084SOL    HW135259  10.303   1.284   8.244
11084SOL    HW235260  10.188   1.194   8.202
11085SOL     OW35261   1.106   7.113   0.838
11085SOL    HW135262   1.075   7.167   0.765
11085SOL    HW235263   1.182   7.066   0.802
11086SOL     OW35264   7.700   1.571   7.823
11086SOL    HW135265   7.718   1.477   7.826
11086SOL    HW235266   7.671   1.593   7.911
11087SOL     OW35267  10.693   5.845  10.369
11087SOL    HW135268  10.714   5.938  10.379
11087SOL    HW235269  10.741   5.818  10.290
11088SOL     OW35270   6.644   3.946   0.994
11088SOL    HW135271   6.720   3.961   0.937
11088SOL    HW235272   6.671   3.979   1.079
11089SOL     OW35273   4.329   8.945   5.222
11089SOL    HW135274   4.311   8.938   5.316
11089SOL    HW235275   4.312   8.857   5.188
11090SOL     OW35276   3.994   7.059   7.701
11090SOL    HW135277   4.065   7.100   7.652
11090SOL    HW235278   3.964   6.987   7.644
11091SOL     OW35279   6.184  10.873   5.898
11091SOL    HW135280   6.103  10.923   5.889
11091SOL    HW235281   6.248  10.937   5.929
11092SOL     OW35282   4.588   2.475   4.359
11092SOL    HW135283   4.503   2.515   4.341
11092SOL    HW235284   4.632   2.536   4.417
11093SOL     OW35285  10.482   8.784   9.392
11093SOL    HW135286  10.435   8.829   9.462
11093SOL    HW235287  10.424   8.713   9.365
11094SOL     OW35288   4.037   4.367  10.551
11094SOL    HW135289   4.123   4.350  10.511
11094SOL    HW235290   3.986   4.289  10.530
11095SOL     OW35291   1.499   9.497   5.771
11095SOL    HW135292   1.535   9.573   5.726
11095SOL    HW235293   1.434   9.533   5.831
11096SOL     OW35294   7.498  11.077   7.905
11096SOL    HW135295   7.452  11.025   7.839
11096SOL    HW235296   7.549  11.013   7.955
11097SOL     OW35297  10.132   0.596   9.663
11097SOL    HW135298  10.167   0.684   9.674
11097SOL    HW235299  10.182   0.542   9.724
11098SOL     OW35300   5.036   2.940   6.934
11098SOL    HW135301   4.966   2.880   6.906
11098SOL    HW235302   5.114   2.884   6.939
11099SOL     OW35303   2.734  10.317   4.150
11099SOL    HW135304   2.652  10.294   4.106
11099SOL    HW235305   2.715  10.399   4.195
11100SOL     OW35306   5.341   6.302   4.438
11100SOL    HW135307   5.362   6.238   4.506
11100SOL    HW235308   5.425   6.345   4.419
11101SOL     OW35309   4.161   2.485   9.327
11101SOL    HW135310   4.066   2.485   9.319
11101SOL    HW235311   4.192   2.469   9.238
11102SOL     OW35312   7.143   6.441   2.750
11102SOL    HW135313   7.199   6.495   2.695
11102SOL    HW235314   7.204   6.395   2.808
11103SOL     OW35315   2.301   3.465   2.833
11103SOL    HW135316   2.387   3.483   2.795
11103SOL    HW235317   2.300   3.513   2.915
11104SOL     OW35318   3.089   6.039   4.692
11104SOL    HW135319   3.128   5.952   4.701
11104SOL    HW235320   3.030   6.047   4.766
11105SOL     OW35321   5.583   2.036   0.933
11105SOL    HW135322   5.498   2.077   0.922
11105SOL    HW235323   5.586   2.011   1.025
11106SOL     OW35324  11.058   4.467   8.735
11106SOL    HW135325  11.028   4.442   8.647
11106SOL    HW235326  11.019   4.402   8.793
11107SOL     OW35327   2.959  10.797   7.571
11107SOL    HW135328   2.875  10.771   7.609
11107SOL    HW235329   2.991  10.866   7.628
11108SOL     OW35330   0.914   7.675   9.699
11108SOL    HW135331   0.961   7.611   9.645
11108SOL    HW235332   0.940   7.654   9.788
11109SOL     OW35333   3.590   3.925   9.557
11109SOL    HW135334   3.638   3.857   9.510
11109SOL    HW235335   3.658   3.975   9.602
11110SOL     OW35336   0.972   7.946   9.927
11110SOL    HW135337   1.066   7.943   9.945
11110SOL    HW235338   0.937   7.868   9.970
11111SOL     OW35339   1.298   8.198  10.948
11111SOL    HW135340   1.280   8.268  11.010
11111SOL    HW235341   1.369   8.148  10.988
11112SOL     OW35342   3.311   7.747   3.118
11112SOL    HW135343   3.239   7.735   3.179
11112SOL    HW235344   3.390   7.729   3.169
11113SOL     OW35345  11.044   1.323   1.930
11113SOL    HW135346  11.093   1.374   1.994
11113SOL    HW235347  11.099   1.323   1.851
11114SOL     OW35348   6.144   2.389   7.178
11114SOL    HW135349   6.141   2.358   7.087
11114SOL    HW235350   6.108   2.477   7.174
11115SOL     OW35351   5.443   2.657   9.541
11115SOL    HW135352   5.365   2.623   9.497
11115SOL    HW235353   5.511   2.592   9.521
11116SOL     OW35354   0.273   1.265  10.367
11116SOL    HW135355   0.307   1.176  10.356
11116SOL    HW235356   0.321   1.300  10.442
11117SOL     OW35357   4.584   6.621   2.677
11117SOL    HW135358   4.523   6.548   2.669
11117SOL    HW235359   4.583   6.662   2.590
11118SOL     OW35360   0.167  11.038   6.430
11118SOL    HW135361   0.209  10.985   6.497
11118SOL    HW235362   0.123  10.975   6.373
11119SOL     OW35363   3.368   3.598  10.745
11119SOL    HW135364   3.446   3.646  10.772
11119SOL    HW235365   3.402   3.523  10.696
11120SOL     OW35366   2.471   5.655  10.759
11120SOL    HW135367   2.521   5.640  10.678
11120SOL    HW235368   2.538   5.663  10.827
11121SOL     OW35369   7.421   9.461   8.180
11121SOL    HW135370   7.463   9.386   8.137
11121SOL    HW235371   7.435   9.446   8.273
11122SOL     OW35372   4.825   4.974   1.424
11122SOL    HW135373   4.847   5.008   1.337
11122SOL    HW235374   4.907   4.982   1.474
11123SOL     OW35375   2.109   8.301   7.815
11123SOL    HW135376   2.177   8.362   7.785
11123SOL    HW235377   2.157   8.220   7.834
11124SOL     OW35378   1.306   7.344   7.783
11124SOL    HW135379   1.350   7.409   7.838
11124SOL    HW235380   1.299   7.386   7.697
11125SOL     OW35381  10.671   1.786   0.840
11125SOL    HW135382  10.653   1.851   0.907
11125SOL    HW235383  10.610   1.714   0.859
11126SOL     OW35384   2.036   2.470   0.350
11126SOL    HW135385   2.045   2.432   0.262
11126SOL    HW235386   1.981   2.547   0.337
11127SOL     OW35387   1.436   7.340   5.419
11127SOL    HW135388   1.366   7.292   5.462
11127SOL    HW235389   1.391   7.400   5.359
11128SOL     OW35390   5.976   5.130  10.149
11128SOL    HW135391   5.956   5.116  10.241
11128SOL    HW235392   6.026   5.211  10.147
11129SOL     OW35393   1.767   1.016   9.657
11129SOL    HW135394   1.828   0.942   9.654
11129SOL    HW235395   1.716   1.002   9.736
11130SOL     OW35396   9.484  10.025   1.486
11130SOL    HW135397   9.440  10.104   1.455
11130SOL    HW235398   9.477  10.029   1.581
11131SOL     OW35399   8.885   2.606   3.351
11131SOL    HW135400   8.873   2.700   3.344
11131SOL    HW235401   8.901   2.590   3.444
11132SOL     OW35402   5.040   4.073  10.449
11132SOL    HW135403   5.009   4.143  10.392
11132SOL    HW235404   4.994   3.995  10.418
11133SOL     OW35405   3.981   4.295   3.264
11133SOL    HW135406   4.015   4.245   3.338
11133SOL    HW235407   4.030   4.377   3.266
11134SOL     OW35408   3.792   0.079   0.488
11134SOL    HW135409   3.874   0.074   0.439
11134SOL    HW235410   3.819   0.095   0.578
11135SOL     OW35411   2.745   4.108   9.229
11135SOL    HW135412   2.681   4.156   9.176
11135SOL    HW235413   2.828   4.119   9.182
11136SOL     OW35414   0.170   1.389   8.823
11136SOL    HW135415   0.087   1.434   8.807
11136SOL    HW235416   0.154   1.335   8.900
11137SOL     OW35417   3.470   2.566   2.853
11137SOL    HW135418   3.482   2.641   2.911
11137SOL    HW235419   3.523   2.586   2.776
11138SOL     OW35420   3.392   9.286   6.785
11138SOL    HW135421   3.486   9.267   6.786
11138SOL    HW235422   3.386   9.376   6.754
11139SOL     OW35423   9.157   9.203   6.573
11139SOL    HW135424   9.103   9.127   6.549
11139SOL    HW235425   9.107   9.279   6.543
11140SOL     OW35426   3.030   0.983   9.075
11140SOL    HW135427   3.028   1.052   9.009
11140SOL    HW235428   2.987   1.021   9.151
11141SOL     OW35429   3.873   1.703   2.286
11141SOL    HW135430   3.902   1.688   2.196
11141SOL    HW235431   3.870   1.615   2.325
11142SOL     OW35432   5.459   9.678   7.969
11142SOL    HW135433   5.540   9.717   8.001
11142SOL    HW235434   5.483   9.641   7.884
11143SOL     OW35435   3.068   0.407  10.817
11143SOL    HW135436   3.157   0.409  10.781
11143SOL    HW235437   3.026   0.485  10.781
11144SOL     OW35438   5.788   2.261   0.075
11144SOL    HW135439   5.800   2.304   0.160
11144SOL    HW235440   5.762   2.331   0.016
11145SOL     OW35441   9.751   0.886   6.352
11145SOL    HW135442   9.783   0.796   6.358
11145SOL    HW235443   9.777   0.926   6.434
11146SOL     OW35444   4.303   5.771   9.709
11146SOL    HW135445   4.369   5.817   9.658
11146SOL    HW235446   4.226   5.828   9.706
11147SOL     OW35447   1.763   5.722   1.104
11147SOL    HW135448   1.829   5.729   1.173
11147SOL    HW235449   1.715   5.641   1.124
11148SOL     OW35450   7.814   3.145   5.463
11148SOL    HW135451   7.804   3.134   5.557
11148SOL    HW235452   7.745   3.206   5.438
11149SOL     OW35453   3.610   5.578   2.592
11149SOL    HW135454   3.582   5.487   2.601
11149SOL    HW235455   3.674   5.576   2.520
11150SOL     OW35456   1.858   0.712   1.910
11150SOL    HW135457   1.804   0.741   1.983
11150SOL    HW235458   1.858   0.786   1.849
11151SOL     OW35459   3.920   5.102   8.505
11151SOL    HW135460   3.942   5.063   8.420
11151SOL    HW235461   3.907   5.195   8.486
11152SOL     OW35462   1.080   1.535   2.736
11152SOL    HW135463   1.086   1.439   2.739
11152SOL    HW235464   1.012   1.557   2.799
11153SOL     OW35465   5.261   0.211  11.089
11153SOL    HW135466   5.317   0.261  11.148
11153SOL    HW235467   5.258   0.262  11.008
11154SOL     OW35468   6.862   7.673   5.536
11154SOL    HW135469   6.843   7.579   5.537
11154SOL    HW235470   6.957   7.678   5.530
11155SOL     OW35471   0.778   1.563   7.121
11155SOL    HW135472   0.870   1.560   7.093
11155SOL    HW235473   0.782   1.557   7.216
11156SOL     OW35474   5.829   3.511   9.645
11156SOL    HW135475   5.814   3.594   9.599
11156SOL    HW235476   5.857   3.450   9.576
11157SOL     OW35477   3.112  10.600   1.817
11157SOL    HW135478   3.139  10.688   1.843
11157SOL    HW235479   3.031  10.613   1.768
11158SOL     OW35480   8.079   2.031   1.088
11158SOL    HW135481   8.100   2.029   0.994
11158SOL    HW235482   8.147   1.977   1.129
11159SOL     OW35483   6.711   3.312   3.900
11159SOL    HW135484   6.786   3.359   3.863
11159SOL    HW235485   6.741   3.284   3.986
11160SOL     OW35486   0.096   1.746   2.574
11160SOL    HW135487   0.067   1.683   2.640
11160SOL    HW235488   0.170   1.791   2.614
11161SOL     OW35489  10.426   7.291  10.784
11161SOL    HW135490  10.361   7.359  10.768
11161SOL    HW235491  10.439   7.291  10.879
11162SOL     OW35492   4.351   2.068   8.478
11162SOL    HW135493   4.411   2.024   8.539
11162SOL    HW235494   4.346   2.008   8.403
11163SOL     OW35495   7.831   5.875   8.141
11163SOL    HW135496   7.855   5.787   8.170
11163SOL    HW235497   7.791   5.915   8.218
11164SOL     OW35498   9.536   6.372  10.134
11164SOL    HW135499   9.506   6.287  10.102
11164SOL    HW235500   9.573   6.353  10.220
11165SOL     OW35501   0.219   4.659   9.897
11165SOL    HW135502   0.288   4.693   9.840
11165SOL    HW235503   0.175   4.737   9.930
11166SOL     OW35504   2.845  10.038   5.481
11166SOL    HW135505   2.763  10.085   5.472
11166SOL    HW235506   2.913  10.102   5.460
11167SOL     OW35507   7.749  10.724   0.471
11167SOL    HW135508   7.715  10.635   0.461
11167SOL    HW235509   7.702  10.760   0.546
11168SOL     OW35510   2.882   4.338   3.763
11168SOL    HW135511   2.914   4.251   3.738
11168SOL    HW235512   2.953   4.397   3.740
11169SOL     OW35513   1.743   4.694   5.151
11169SOL    HW135514   1.734   4.711   5.244
11169SOL    HW235515   1.837   4.678   5.138
11170SOL     OW35516   4.373   0.904   1.495
11170SOL    HW135517   4.281   0.891   1.517
11170SOL    HW235518   4.396   0.827   1.443
11171SOL     OW35519   4.376   5.843   2.034
11171SOL    HW135520   4.415   5.757   2.051
11171SOL    HW235521   4.436   5.905   2.075
11172SOL     OW35522   4.729   4.327   1.786
11172SOL    HW135523   4.776   4.246   1.808
11172SOL    HW235524   4.797   4.394   1.783
11173SOL     OW35525  10.222   0.725   1.435
11173SOL    HW135526  10.270   0.699   1.513
11173SOL    HW235527  10.211   0.643   1.385
11174SOL     OW35528   4.878   9.139   4.260
11174SOL    HW135529   4.797   9.186   4.240
11174SOL    HW235530   4.946   9.206   4.259
11175SOL     OW35531   3.722   2.072   6.793
11175SOL    HW135532   3.734   2.023   6.711
11175SOL    HW235533   3.776   2.150   6.782
11176SOL     OW35534   1.619   8.532   3.032
11176SOL    HW135535   1.628   8.457   3.091
11176SOL    HW235536   1.658   8.605   3.079
11177SOL     OW35537   8.222   1.437   3.059
11177SOL    HW135538   8.236   1.441   3.153
11177SOL    HW235539   8.130   1.413   3.049
11178SOL     OW35540  11.074   5.498   7.475
11178SOL    HW135541  10.986   5.471   7.448
11178SOL    HW235542  11.066   5.518   7.568
11179SOL     OW35543   3.084   7.872   1.850
11179SOL    HW135544   2.996   7.874   1.813
11179SOL    HW235545   3.138   7.831   1.782
11180SOL     OW35546   0.520   2.687   8.153
11180SOL    HW135547   0.551   2.712   8.240
11180SOL    HW235548   0.426   2.704   8.155
11181SOL     OW35549   3.300   3.629   2.616
11181SOL    HW135550   3.262   3.667   2.695
11181SOL    HW235551   3.350   3.700   2.577
11182SOL     OW35552   6.965   3.177   2.077
11182SOL    HW135553   6.911   3.192   2.154
11182SOL    HW235554   6.973   3.263   2.035
11183SOL     OW35555  10.999  10.713   1.729
11183SOL    HW135556  10.925  10.746   1.678
11183SOL    HW235557  11.015  10.780   1.795
11184SOL     OW35558   2.693  10.067   1.008
11184SOL    HW135559   2.671  10.150   1.048
11184SOL    HW235560   2.610  10.034   0.973
11185SOL     OW35561   5.474   2.840   4.743
11185SOL    HW135562   5.549   2.781   4.740
11185SOL    HW235563   5.438   2.829   4.831
11186SOL     OW35564   4.236   8.951   4.075
11186SOL    HW135565   4.217   9.019   4.010
11186SOL    HW235566   4.156   8.899   4.080
11187SOL     OW35567   6.553   7.349   0.510
11187SOL    HW135568   6.518   7.434   0.534
11187SOL    HW235569   6.509   7.328   0.427
11188SOL     OW35570   2.546   2.515   1.270
11188SOL    HW135571   2.455   2.507   1.297
11188SOL    HW235572   2.595   2.463   1.334
11189SOL     OW35573   2.262   0.824   2.054
11189SOL    HW135574   2.258   0.742   2.103
11189SOL    HW235575   2.179   0.868   2.074
11190SOL     OW35576   9.024   3.809   2.688
11190SOL    HW135577   9.036   3.787   2.780
11190SOL    HW235578   8.930   3.804   2.674
11191SOL     OW35579   0.337   8.044   0.608
11191SOL    HW135580   0.344   8.009   0.697
11191SOL    HW235581   0.416   8.013   0.564
11192SOL     OW35582   4.649   0.533   9.056
11192SOL    HW135583   4.656   0.472   9.129
11192SOL    HW235584   4.738   0.537   9.019
11193SOL     OW35585   0.526   1.977   4.282
11193SOL    HW135586   0.492   1.889   4.263
11193SOL    HW235587   0.508   1.990   4.375
11194SOL     OW35588   3.299   2.022   4.553
11194SOL    HW135589   3.309   1.927   4.566
11194SOL    HW235590   3.205   2.037   4.556
11195SOL     OW35591   0.699   7.706   7.993
11195SOL    HW135592   0.741   7.792   7.993
11195SOL    HW235593   0.736   7.661   7.916
11196SOL     OW35594   3.634   3.323   9.635
11196SOL    HW135595   3.562   3.342   9.695
11196SOL    HW235596   3.713   3.333   9.688
11197SOL     OW35597   1.126   7.478  10.739
11197SOL    HW135598   1.105   7.434  10.821
11197SOL    HW235599   1.125   7.571  10.760
11198SOL     OW35600   3.984   2.547  10.120
11198SOL    HW135601   3.951   2.579  10.036
11198SOL    HW235602   4.079   2.557  10.113
11199SOL     OW35603   9.111   1.378   7.474
11199SOL    HW135604   9.051   1.338   7.537
11199SOL    HW235605   9.089   1.336   7.390
11200SOL     OW35606   2.418   7.783   8.109
11200SOL    HW135607   2.492   7.831   8.146
11200SOL    HW235608   2.377   7.740   8.184
11201SOL     OW35609   2.629   7.963   6.791
11201SOL    HW135610   2.551   7.929   6.747
11201SOL    HW235611   2.685   7.886   6.803
11202SOL     OW35612   4.221   0.673   1.806
11202SOL    HW135613   4.300   0.619   1.811
11202SOL    HW235614   4.152   0.612   1.780
11203SOL     OW35615   8.157   0.802   3.457
11203SOL    HW135616   8.240   0.804   3.505
11203SOL    HW235617   8.115   0.721   3.485
11204SOL     OW35618   2.645   0.127  10.273
11204SOL    HW135619   2.666   0.216  10.299
11204SOL    HW235620   2.714   0.104  10.210
11205SOL     OW35621   3.860  10.275   4.236
11205SOL    HW135622   3.868  10.275   4.140
11205SOL    HW235623   3.837  10.184   4.257
11206SOL     OW35624   1.914  10.422   1.690
11206SOL    HW135625   1.862  10.347   1.662
11206SOL    HW235626   1.898  10.429   1.784
11207SOL     OW35627   4.519   2.065   0.703
11207SOL    HW135628   4.548   2.121   0.775
11207SOL    HW235629   4.471   2.124   0.645
11208SOL     OW35630   1.455   2.838   2.463
11208SOL    HW135631   1.427   2.902   2.528
11208SOL    HW235632   1.438   2.753   2.504
11209SOL     OW35633   0.377   1.604   2.447
11209SOL    HW135634   0.462   1.644   2.429
11209SOL    HW235635   0.320   1.677   2.470
11210SOL     OW35636   3.109   8.939   9.676
11210SOL    HW135637   3.153   8.891   9.605
11210SOL    HW235638   3.170   9.009   9.699
11211SOL     OW35639  10.514   5.359   0.023
11211SOL    HW135640  10.604   5.390   0.033
11211SOL    HW235641  10.522   5.263   0.018
11212SOL     OW35642   4.887   6.687   8.462
11212SOL    HW135643   4.864   6.597   8.436
11212SOL    HW235644   4.827   6.742   8.412
11213SOL     OW35645   3.674   1.090   7.478
11213SOL    HW135646   3.749   1.057   7.427
11213SOL    HW235647   3.713   1.146   7.544
11214SOL     OW35648   4.445   5.820   7.077
11214SOL    HW135649   4.485   5.750   7.025
11214SOL    HW235650   4.451   5.789   7.167
11215SOL     OW35651  10.966   7.849  10.221
11215SOL    HW135652  10.885   7.852  10.170
11215SOL    HW235653  11.013   7.773  10.185
11216SOL     OW35654   1.008   6.005   0.768
11216SOL    HW135655   0.920   6.030   0.741
11216SOL    HW235656   1.013   5.911   0.749
11217SOL     OW35657   9.002   5.312   9.645
11217SOL    HW135658   9.080   5.365   9.629
11217SOL    HW235659   8.967   5.344   9.728
11218SOL     OW35660   6.189   5.565   1.154
11218SOL    HW135661   6.240   5.529   1.081
11218SOL    HW235662   6.226   5.652   1.168
11219SOL     OW35663   3.883   3.492  10.061
11219SOL    HW135664   3.973   3.495  10.027
11219SOL    HW235665   3.893   3.465  10.152
11220SOL     OW35666   5.916   7.110   7.588
11220SOL    HW135667   5.965   7.151   7.659
11220SOL    HW235668   5.827   7.144   7.597
11221SOL     OW35669  10.619   5.391   3.225
11221SOL    HW135670  10.609   5.307   3.179
11221SOL    HW235671  10.655   5.450   3.159
11222SOL     OW35672   4.743   3.278   2.639
11222SOL    HW135673   4.777   3.363   2.613
11222SOL    HW235674   4.648   3.285   2.627
11223SOL     OW35675   1.818   3.628   1.094
11223SOL    HW135676   1.743   3.570   1.107
11223SOL    HW235677   1.786   3.715   1.118
11224SOL     OW35678  10.898   3.425   3.600
11224SOL    HW135679  10.971   3.442   3.541
11224SOL    HW235680  10.853   3.509   3.608
11225SOL     OW35681   3.123   2.667   0.170
11225SOL    HW135682   3.078   2.733   0.223
11225SOL    HW235683   3.068   2.658   0.092
11226SOL     OW35684  10.670   2.642   0.586
11226SOL    HW135685  10.603   2.706   0.563
11226SOL    HW235686  10.658   2.571   0.522
11227SOL     OW35687   0.720   4.937   4.965
11227SOL    HW135688   0.717   4.958   5.058
11227SOL    HW235689   0.745   4.844   4.962
11228SOL     OW35690   5.537   6.467   9.653
11228SOL    HW135691   5.487   6.385   9.659
11228SOL    HW235692   5.543   6.485   9.559
11229SOL     OW35693   9.900   3.618   4.910
11229SOL    HW135694   9.863   3.581   4.830
11229SOL    HW235695   9.824   3.646   4.961
11230SOL     OW35696   6.678   4.542   0.252
11230SOL    HW135697   6.746   4.605   0.275
11230SOL    HW235698   6.694   4.522   0.159
11231SOL     OW35699   1.320   2.133   3.959
11231SOL    HW135700   1.408   2.096   3.951
11231SOL    HW235701   1.264   2.070   3.912
11232SOL     OW35702   6.186   0.251   0.875
11232SOL    HW135703   6.093   0.273   0.872
11232SOL    HW235704   6.205   0.239   0.968
11233SOL     OW35705  10.943   6.920   5.569
11233SOL    HW135706  10.976   6.906   5.657
11233SOL    HW235707  10.848   6.910   5.577
11234SOL     OW35708   0.766   2.816  10.578
11234SOL    HW135709   0.729   2.789  10.493
11234SOL    HW235710   0.769   2.911  10.574
11235SOL     OW35711   4.960   3.852   0.411
11235SOL    HW135712   4.905   3.928   0.391
11235SOL    HW235713   4.898   3.785   0.441
11236SOL     OW35714   1.407   2.381   1.914
11236SOL    HW135715   1.416   2.368   1.819
11236SOL    HW235716   1.488   2.425   1.940
11237SOL     OW35717   8.324   1.499   6.605
11237SOL    HW135718   8.350   1.589   6.587
11237SOL    HW235719   8.353   1.450   6.528
11238SOL     OW35720   3.515   6.493   1.434
11238SOL    HW135721   3.525   6.398   1.439
11238SOL    HW235722   3.470   6.507   1.350
11239SOL     OW35723   2.897   7.093   6.913
11239SOL    HW135724   2.890   7.188   6.921
11239SOL    HW235725   2.847   7.058   6.987
11240SOL     OW35726   3.071   9.720   4.149
11240SOL    HW135727   3.133   9.715   4.076
11240SOL    HW235728   3.052   9.813   4.158
11241SOL     OW35729   1.992   7.166   2.790
11241SOL    HW135730   1.993   7.217   2.870
11241SOL    HW235731   2.070   7.195   2.742
11242SOL     OW35732   5.588  10.408   2.137
11242SOL    HW135733   5.545  10.334   2.180
11242SOL    HW235734   5.632  10.455   2.208
11243SOL     OW35735   8.601   2.666   4.256
11243SOL    HW135736   8.593   2.598   4.323
11243SOL    HW235737   8.693   2.662   4.228
11244SOL     OW35738   7.656   8.560   9.187
11244SOL    HW135739   7.629   8.651   9.195
11244SOL    HW235740   7.730   8.562   9.126
11245SOL     OW35741   5.367  10.400   6.977
11245SOL    HW135742   5.314  10.456   6.921
11245SOL    HW235743   5.432  10.361   6.918
11246SOL     OW35744   7.748   6.275   8.624
11246SOL    HW135745   7.695   6.229   8.689
11246SOL    HW235746   7.826   6.304   8.672
11247SOL     OW35747   5.315   3.669   2.545
11247SOL    HW135748   5.371   3.611   2.597
11247SOL    HW235749   5.345   3.757   2.566
11248SOL     OW35750   1.777   4.259   0.643
11248SOL    HW135751   1.782   4.173   0.601
11248SOL    HW235752   1.749   4.318   0.573
11249SOL     OW35753   1.470   2.494  10.665
11249SOL    HW135754   1.415   2.570  10.679
11249SOL    HW235755   1.416   2.435  10.612
11250SOL     OW35756   3.808   6.803   2.211
11250SOL    HW135757   3.775   6.890   2.231
11250SOL    HW235758   3.731   6.752   2.186
11251SOL     OW35759   6.947   4.208   2.869
11251SOL    HW135760   6.880   4.222   2.936
11251SOL    HW235761   6.898   4.195   2.788
11252SOL     OW35762   1.343   5.559   0.876
11252SOL    HW135763   1.248   5.570   0.869
11252SOL    HW235764   1.362   5.574   0.968
11253SOL     OW35765  10.638   9.582   1.301
11253SOL    HW135766  10.587   9.579   1.382
11253SOL    HW235767  10.682   9.667   1.302
11254SOL     OW35768   3.435   5.431   5.335
11254SOL    HW135769   3.513   5.485   5.344
11254SOL    HW235770   3.469   5.341   5.329
11255SOL     OW35771   8.140   4.435  10.008
11255SOL    HW135772   8.140   4.366  10.075
11255SOL    HW235773   8.104   4.512  10.052
11256SOL     OW35774   5.210   5.145   1.548
11256SOL    HW135775   5.293   5.127   1.592
11256SOL    HW235776   5.236   5.175   1.460
11257SOL     OW35777   8.282   6.470  10.525
11257SOL    HW135778   8.377   6.468  10.539
11257SOL    HW235779   8.269   6.540  10.461
11258SOL     OW35780   2.260   1.425  10.284
11258SOL    HW135781   2.234   1.393  10.197
11258SOL    HW235782   2.342   1.379  10.302
11259SOL     OW35783   1.666   9.570   8.746
11259SOL    HW135784   1.722   9.516   8.689
11259SOL    HW235785   1.629   9.508   8.809
11260SOL     OW35786  10.489   5.576   4.730
11260SOL    HW135787  10.522   5.655   4.687
11260SOL    HW235788  10.417   5.546   4.674
11261SOL     OW35789   3.891   6.105   0.133
11261SOL    HW135790   3.962   6.140   0.187
11261SOL    HW235791   3.870   6.176   0.072
11262SOL     OW35792   4.017   4.717   1.832
11262SOL    HW135793   3.941   4.727   1.774
11262SOL    HW235794   3.997   4.772   1.908
11263SOL     OW35795   7.234   5.178   8.356
11263SOL    HW135796   7.241   5.124   8.435
11263SOL    HW235797   7.292   5.252   8.372
11264SOL     OW35798   2.202   5.597   0.658
11264SOL    HW135799   2.224   5.609   0.750
11264SOL    HW235800   2.214   5.503   0.642
11265SOL     OW35801   6.365   2.933   4.122
11265SOL    HW135802   6.272   2.910   4.118
11265SOL    HW235803   6.392   2.909   4.210
11266SOL     OW35804   1.679   0.129   1.151
11266SOL    HW135805   1.724   0.206   1.116
11266SOL    HW235806   1.608   0.113   1.089
11267SOL     OW35807   0.514   9.249  10.985
11267SOL    HW135808   0.449   9.310  11.019
11267SOL    HW235809   0.464   9.171  10.961
11268SOL     OW35810   9.214   8.229   3.697
11268SOL    HW135811   9.306   8.247   3.718
11268SOL    HW235812   9.217   8.147   3.648
11269SOL     OW35813   5.095   8.532   9.939
11269SOL    HW135814   5.155   8.595   9.979
11269SOL    HW235815   5.056   8.579   9.865
11270SOL     OW35816   8.760   8.386   6.809
11270SOL    HW135817   8.678   8.346   6.837
11270SOL    HW235818   8.765   8.468   6.857
11271SOL     OW35819  10.632   9.832   2.849
11271SOL    HW135820  10.541   9.859   2.840
11271SOL    HW235821  10.632   9.739   2.826
11272SOL     OW35822   1.189  11.032   4.057
11272SOL    HW135823   1.255  10.984   4.007
11272SOL    HW235824   1.234  11.111   4.086
11273SOL     OW35825   8.298   2.558   0.259
11273SOL    HW135826   8.374   2.616   0.258
11273SOL    HW235827   8.315   2.497   0.330
11274SOL     OW35828   7.817   2.107   4.490
11274SOL    HW135829   7.897   2.095   4.438
11274SOL    HW235830   7.791   2.197   4.473
11275SOL     OW35831   2.770   8.445   9.144
11275SOL    HW135832   2.689   8.437   9.093
11275SOL    HW235833   2.758   8.523   9.198
11276SOL     OW35834   2.211   2.385   7.680
11276SOL    HW135835   2.200   2.404   7.586
11276SOL    HW235836   2.162   2.304   7.693
11277SOL     OW35837  10.998   4.757   0.220
11277SOL    HW135838  10.939   4.694   0.178
11277SOL    HW235839  10.982   4.839   0.174
11278SOL     OW35840   7.547   8.557   5.817
11278SOL    HW135841   7.620   8.544   5.756
11278SOL    HW235842   7.513   8.643   5.795
11279SOL     OW35843   6.011   7.273   2.222
11279SOL    HW135844   5.952   7.244   2.152
11279SOL    HW235845   6.028   7.194   2.273
11280SOL     OW35846   6.188   4.403   6.297
11280SOL    HW135847   6.257   4.337   6.284
11280SOL    HW235848   6.223   4.482   6.257
11281SOL     OW35849   2.671   8.014   6.299
11281SOL    HW135850   2.701   8.091   6.251
11281SOL    HW235851   2.684   8.036   6.391
11282SOL     OW35852   0.451   0.216  10.038
11282SOL    HW135853   0.407   0.248   9.959
11282SOL    HW235854   0.466   0.294  10.090
11283SOL     OW35855  10.064   8.662   4.564
11283SOL    HW135856  10.030   8.575   4.584
11283SOL    HW235857   9.987   8.712   4.538
11284SOL     OW35858   3.071   2.528   8.381
11284SOL    HW135859   3.161   2.541   8.410
11284SOL    HW235860   3.079   2.506   8.288
11285SOL     OW35861   5.970   1.416   5.503
11285SOL    HW135862   5.979   1.508   5.527
11285SOL    HW235863   6.057   1.379   5.518
11286SOL     OW35864   4.044   7.486   9.297
11286SOL    HW135865   3.955   7.464   9.324
11286SOL    HW235866   4.045   7.581   9.290
11287SOL     OW35867   1.355   2.595  10.358
11287SOL    HW135868   1.332   2.599  10.265
11287SOL    HW235869   1.332   2.505  10.383
11288SOL     OW35870   6.925   4.832   8.862
11288SOL    HW135871   6.874   4.814   8.783
11288SOL    HW235872   6.864   4.877   8.920
11289SOL     OW35873   5.495   3.216   5.987
11289SOL    HW135874   5.423   3.171   6.031
11289SOL    HW235875   5.462   3.234   5.899
11290SOL     OW35876   8.373   0.111   0.062
11290SOL    HW135877   8.304   0.091   0.126
11290SOL    HW235878   8.411   0.025   0.041
11291SOL     OW35879   0.748   1.859   0.597
11291SOL    HW135880   0.714   1.884   0.682
11291SOL    HW235881   0.820   1.799   0.616
11292SOL     OW35882  10.315   0.592   0.310
11292SOL    HW135883  10.362   0.572   0.391
11292SOL    HW235884  10.366   0.662   0.269
11293SOL     OW35885  10.225   5.387  10.626
11293SOL    HW135886  10.189   5.396  10.537
11293SOL    HW235887  10.256   5.474  10.648
11294SOL     OW35888   4.869   8.900  10.115
11294SOL    HW135889   4.801   8.964  10.095
11294SOL    HW235890   4.830   8.842  10.180
11295SOL     OW35891   0.247  10.553   1.915
11295SOL    HW135892   0.198  10.533   1.835
11295SOL    HW235893   0.222  10.643   1.936
11296SOL     OW35894   5.454   3.163   2.431
11296SOL    HW135895   5.459   3.258   2.437
11296SOL    HW235896   5.499   3.142   2.349
11297SOL     OW35897   2.785   3.171   0.147
11297SOL    HW135898   2.817   3.250   0.104
11297SOL    HW235899   2.723   3.203   0.213
11298SOL     OW35900   0.228   2.951   5.655
11298SOL    HW135901   0.139   2.922   5.635
11298SOL    HW235902   0.276   2.870   5.673
11299SOL     OW35903   8.753   8.197   9.542
11299SOL    HW135904   8.680   8.196   9.604
11299SOL    HW235905   8.735   8.271   9.484
11300SOL     OW35906   6.677   5.260   0.659
11300SOL    HW135907   6.675   5.285   0.751
11300SOL    HW235908   6.585   5.258   0.633
11301SOL     OW35909   2.427   5.939   8.681
11301SOL    HW135910   2.337   5.967   8.699
11301SOL    HW235911   2.427   5.845   8.699
11302SOL     OW35912   3.806   4.524   9.738
11302SOL    HW135913   3.754   4.444   9.733
11302SOL    HW235914   3.749   4.592   9.703
11303SOL     OW35915   7.836   4.182   8.799
11303SOL    HW135916   7.774   4.160   8.868
11303SOL    HW235917   7.787   4.170   8.717
11304SOL     OW35918   0.598   1.197  11.005
11304SOL    HW135919   0.668   1.204  10.940
11304SOL    HW235920   0.591   1.284  11.042
11305SOL     OW35921   9.689   8.945   8.477
11305SOL    HW135922   9.780   8.920   8.491
11305SOL    HW235923   9.643   8.912   8.554
11306SOL     OW35924   6.725   7.020   4.357
11306SOL    HW135925   6.728   7.064   4.272
11306SOL    HW235926   6.642   6.973   4.357
11307SOL     OW35927   3.055   1.506   1.333
11307SOL    HW135928   3.111   1.482   1.259
11307SOL    HW235929   3.015   1.423   1.360
11308SOL     OW35930   5.150   4.361   6.664
11308SOL    HW135931   5.167   4.400   6.749
11308SOL    HW235932   5.115   4.274   6.684
11309SOL     OW35933   1.041   5.462  11.076
11309SOL    HW135934   1.017   5.543  11.120
11309SOL    HW235935   0.963   5.438  11.026
11310SOL     OW35936  10.538   9.191   6.522
11310SOL    HW135937  10.510   9.100   6.513
11310SOL    HW235938  10.508   9.217   6.609
11311SOL     OW35939   1.198   6.562   5.210
11311SOL    HW135940   1.170   6.548   5.300
11311SOL    HW235941   1.245   6.481   5.187
11312SOL     OW35942  10.805   8.424   7.014
11312SOL    HW135943  10.853   8.477   7.077
11312SOL    HW235944  10.760   8.358   7.066
11313SOL     OW35945   3.449   0.994   5.696
11313SOL    HW135946   3.497   1.018   5.775
11313SOL    HW235947   3.470   0.901   5.682
11314SOL     OW35948   0.193   7.751   5.883
11314SOL    HW135949   0.223   7.737   5.793
11314SOL    HW235950   0.227   7.675   5.931
11315SOL     OW35951   2.547   5.986   1.354
11315SOL    HW135952   2.533   6.043   1.278
11315SOL    HW235953   2.637   6.005   1.382
11316SOL     OW35954   0.023   3.552   8.901
11316SOL    HW135955   0.031   3.646   8.885
11316SOL    HW235956  -0.042   3.522   8.837
11317SOL     OW35957   2.487   5.346   4.446
11317SOL    HW135958   2.514   5.431   4.413
11317SOL    HW235959   2.569   5.303   4.471
11318SOL     OW35960   2.719   1.946  10.727
11318SOL    HW135961   2.680   1.920  10.643
11318SOL    HW235962   2.695   1.875  10.787
11319SOL     OW35963   7.735  10.900  10.273
11319SOL    HW135964   7.755  10.978  10.325
11319SOL    HW235965   7.798  10.902  10.201
11320SOL     OW35966   9.233   0.128   4.665
11320SOL    HW135967   9.291   0.057   4.694
11320SOL    HW235968   9.292   0.194   4.629
11321SOL     OW35969   6.733   5.521  10.825
11321SOL    HW135970   6.677   5.589  10.861
11321SOL    HW235971   6.817   5.532  10.869
11322SOL     OW35972   1.642   4.896   3.291
11322SOL    HW135973   1.601   4.948   3.360
11322SOL    HW235974   1.660   4.811   3.332
11323SOL     OW35975   5.245   5.395   3.582
11323SOL    HW135976   5.179   5.412   3.648
11323SOL    HW235977   5.312   5.344   3.627
11324SOL     OW35978   3.002   6.970   0.217
11324SOL    HW135979   2.986   7.061   0.193
11324SOL    HW235980   3.052   6.974   0.298
11325SOL     OW35981   4.281  10.869   1.333
11325SOL    HW135982   4.339  10.846   1.405
11325SOL    HW235983   4.281  10.965   1.332
11326SOL     OW35984   1.439   3.308   0.043
11326SOL    HW135985   1.457   3.248  -0.029
11326SOL    HW235986   1.523   3.351   0.060
11327SOL     OW35987   1.496   2.899   6.321
11327SOL    HW135988   1.440   2.975   6.338
11327SOL    HW235989   1.534   2.916   6.234
11328SOL     OW35990   3.070   7.401   2.278
11328SOL    HW135991   2.976   7.398   2.261
11328SOL    HW235992   3.100   7.480   2.233
11329SOL     OW35993   6.443   3.328   4.209
11329SOL    HW135994   6.532   3.341   4.241
11329SOL    HW235995   6.395   3.293   4.284
11330SOL     OW35996   6.078   6.024   3.745
11330SOL    HW135997   6.105   6.096   3.801
11330SOL    HW235998   6.052   5.955   3.806
11331SOL     OW35999   2.397   6.605   0.566
11331SOL    HW136000   2.346   6.647   0.496
11331SOL    HW236001   2.445   6.535   0.521
11332SOL     OW36002   7.296   8.551   1.784
11332SOL    HW136003   7.258   8.585   1.703
11332SOL    HW236004   7.363   8.489   1.755
11333SOL     OW36005   5.736   2.220   4.881
11333SOL    HW136006   5.703   2.174   4.958
11333SOL    HW236007   5.663   2.219   4.819
11334SOL     OW36008   1.542  10.342   7.042
11334SOL    HW136009   1.500  10.419   7.080
11334SOL    HW236010   1.526  10.272   7.105
11335SOL     OW36011  11.079   2.880   5.571
11335SOL    HW136012  11.056   2.959   5.522
11335SOL    HW236013  11.047   2.808   5.516
11336SOL     OW36014   0.270   4.919   2.742
11336SOL    HW136015   0.217   4.978   2.795
11336SOL    HW236016   0.213   4.895   2.668
11337SOL     OW36017   1.191   1.176   0.855
11337SOL    HW136018   1.104   1.206   0.879
11337SOL    HW236019   1.242   1.182   0.935
11338SOL     OW36020   9.287   2.566   6.098
11338SOL    HW136021   9.301   2.611   6.181
11338SOL    HW236022   9.270   2.635   6.035
11339SOL     OW36023   3.805   0.645   2.804
11339SOL    HW136024   3.861   0.573   2.833
11339SOL    HW236025   3.724   0.634   2.854
11340SOL     OW36026   1.545   2.263  10.315
11340SOL    HW136027   1.578   2.179  10.348
11340SOL    HW236028   1.450   2.250  10.308
11341SOL     OW36029   1.787   4.950   6.215
11341SOL    HW136030   1.812   5.025   6.160
11341SOL    HW236031   1.846   4.954   6.290
11342SOL     OW36032  10.670   4.408   0.475
11342SOL    HW136033  10.730   4.406   0.550
11342SOL    HW236034  10.716   4.359   0.406
11343SOL     OW36035   2.067   5.566   8.402
11343SOL    HW136036   1.997   5.558   8.337
11343SOL    HW236037   2.036   5.517   8.478
11344SOL     OW36038   5.018   6.431   1.972
11344SOL    HW136039   4.944   6.419   2.032
11344SOL    HW236040   5.060   6.345   1.968
11345SOL     OW36041   6.413   5.109   3.406
11345SOL    HW136042   6.506   5.108   3.429
11345SOL    HW236043   6.371   5.055   3.473
11346SOL     OW36044   5.198   2.884   0.617
11346SOL    HW136045   5.228   2.862   0.529
11346SOL    HW236046   5.106   2.857   0.618
11347SOL     OW36047   5.984   3.327   5.310
11347SOL    HW136048   5.917   3.346   5.244
11347SOL    HW236049   6.066   3.353   5.268
11348SOL     OW36050   4.495   5.838   3.983
11348SOL    HW136051   4.507   5.896   3.908
11348SOL    HW236052   4.578   5.843   4.030
11349SOL     OW36053   2.947   9.758   1.681
11349SOL    HW136054   3.034   9.728   1.655
11349SOL    HW236055   2.962   9.808   1.761
11350SOL     OW36056   9.751   9.194   5.571
11350SOL    HW136057   9.761   9.134   5.496
11350SOL    HW236058   9.660   9.222   5.567
11351SOL     OW36059  10.458   5.765   0.454
11351SOL    HW136060  10.419   5.716   0.382
11351SOL    HW236061  10.384   5.791   0.509
11352SOL     OW36062   9.590   3.019   1.686
11352SOL    HW136063   9.597   3.090   1.622
11352SOL    HW236064   9.617   2.940   1.638
11353SOL     OW36065   6.320   2.338   6.108
11353SOL    HW136066   6.402   2.375   6.075
11353SOL    HW236067   6.301   2.389   6.187
11354SOL     OW36068   5.903   3.211  10.603
11354SOL    HW136069   5.997   3.220  10.616
11354SOL    HW236070   5.883   3.270  10.530
11355SOL     OW36071   7.397   9.157   9.758
11355SOL    HW136072   7.347   9.142   9.838
11355SOL    HW236073   7.398   9.252   9.748
11356SOL     OW36074   4.105   2.355   3.192
11356SOL    HW136075   4.151   2.381   3.112
11356SOL    HW236076   4.025   2.407   3.192
11357SOL     OW36077   0.784   9.409   1.595
11357SOL    HW136078   0.721   9.447   1.655
11357SOL    HW236079   0.798   9.476   1.528
11358SOL     OW36080   7.426   5.134   8.137
11358SOL    HW136081   7.350   5.169   8.183
11358SOL    HW236082   7.490   5.116   8.206
11359SOL     OW36083   0.473  10.599   5.169
11359SOL    HW136084   0.562  10.635   5.176
11359SOL    HW236085   0.424  10.643   5.238
11360SOL     OW36086   1.420   8.551   8.128
11360SOL    HW136087   1.503   8.523   8.167
11360SOL    HW236088   1.363   8.474   8.137
11361SOL     OW36089   9.738   8.672   8.194
11361SOL    HW136090   9.644   8.686   8.201
11361SOL    HW236091   9.754   8.592   8.244
11362SOL     OW36092   5.328   7.444  10.290
11362SOL    HW136093   5.313   7.505  10.362
11362SOL    HW236094   5.393   7.487  10.234
11363SOL     OW36095  11.043   5.460   6.649
11363SOL    HW136096  11.033   5.554   6.638
11363SOL    HW236097  10.967   5.422   6.604
11364SOL     OW36098  10.318   3.151   3.391
11364SOL    HW136099  10.243   3.107   3.431
11364SOL    HW236100  10.324   3.235   3.436
11365SOL     OW36101   5.052   8.928   0.926
11365SOL    HW136102   5.089   8.899   0.842
11365SOL    HW236103   5.041   9.022   0.916
11366SOL     OW36104   6.311   1.777   7.024
11366SOL    HW136105   6.390   1.786   6.971
11366SOL    HW236106   6.303   1.861   7.069
11367SOL     OW36107   5.463   2.349   1.575
11367SOL    HW136108   5.525   2.356   1.647
11367SOL    HW236109   5.394   2.291   1.607
11368SOL     OW36110  10.285  10.600   7.724
11368SOL    HW136111  10.322  10.683   7.693
11368SOL    HW236112  10.330  10.533   7.672
11369SOL     OW36113   1.427   6.330  10.646
11369SOL    HW136114   1.486   6.390  10.691
11369SOL    HW236115   1.484   6.283  10.585
11370SOL     OW36116   3.378   1.401   3.106
11370SOL    HW136117   3.304   1.417   3.165
11370SOL    HW236118   3.399   1.486   3.068
11371SOL     OW36119   1.212   6.679   2.596
11371SOL    HW136120   1.264   6.731   2.657
11371SOL    HW236121   1.189   6.740   2.526
11372SOL     OW36122   3.128   9.807  10.199
11372SOL    HW136123   3.143   9.725  10.247
11372SOL    HW236124   3.149   9.785  10.108
11373SOL     OW36125   3.488   7.333   0.361
11373SOL    HW136126   3.476   7.428   0.366
11373SOL    HW236127   3.448   7.308   0.277
11374SOL     OW36128   2.652   2.904   5.613
11374SOL    HW136129   2.720   2.874   5.552
11374SOL    HW236130   2.608   2.823   5.640
11375SOL     OW36131   7.405   8.081   0.111
11375SOL    HW136132   7.433   8.020   0.043
11375SOL    HW236133   7.483   8.133   0.130
11376SOL     OW36134  10.368   6.124   4.720
11376SOL    HW136135  10.281   6.097   4.748
11376SOL    HW236136  10.376   6.090   4.630
11377SOL     OW36137   1.609   9.851   4.004
11377SOL    HW136138   1.660   9.773   4.028
11377SOL    HW236139   1.647   9.921   4.056
11378SOL     OW36140   2.293   4.649   5.742
11378SOL    HW136141   2.261   4.738   5.730
11378SOL    HW236142   2.226   4.594   5.701
11379SOL     OW36143  10.810   4.576   1.843
11379SOL    HW136144  10.785   4.602   1.754
11379SOL    HW236145  10.731   4.537   1.880
11380SOL     OW36146   3.220   1.316   3.547
11380SOL    HW136147   3.254   1.271   3.469
11380SOL    HW236148   3.298   1.332   3.600
11381SOL     OW36149   6.597   7.562   1.854
11381SOL    HW136150   6.518   7.514   1.879
11381SOL    HW236151   6.669   7.503   1.877
11382SOL     OW36152   1.846   5.260   2.465
11382SOL    HW136153   1.867   5.347   2.432
11382SOL    HW236154   1.789   5.222   2.398
11383SOL     OW36155   7.116   8.502   3.452
11383SOL    HW136156   7.198   8.545   3.475
11383SOL    HW236157   7.138   8.448   3.376
11384SOL     OW36158  10.647   6.202   1.262
11384SOL    HW136159  10.719   6.240   1.312
11384SOL    HW236160  10.569   6.220   1.314
11385SOL     OW36161   0.110   3.783   3.341
11385SOL    HW136162   0.027   3.810   3.300
11385SOL    HW236163   0.177   3.809   3.278
11386SOL     OW36164   1.383   1.296   4.613
11386SOL    HW136165   1.325   1.231   4.653
11386SOL    HW236166   1.468   1.251   4.606
11387SOL     OW36167  10.769   0.436   8.556
11387SOL    HW136168  10.729   0.453   8.641
11387SOL    HW236169  10.749   0.344   8.538
11388SOL     OW36170   2.228   2.774   6.664
11388SOL    HW136171   2.223   2.845   6.727
11388SOL    HW236172   2.218   2.694   6.716
11389SOL     OW36173   0.302   5.681   2.221
11389SOL    HW136174   0.265   5.668   2.133
11389SOL    HW236175   0.258   5.616   2.276
11390SOL     OW36176   1.386   0.479   9.798
11390SOL    HW136177   1.332   0.403   9.819
11390SOL    HW236178   1.366   0.543   9.866
11391SOL     OW36179   9.926   4.916   2.680
11391SOL    HW136180   9.863   4.868   2.733
11391SOL    HW236181   9.874   4.955   2.610
11392SOL     OW36182   5.164   8.651   3.265
11392SOL    HW136183   5.239   8.662   3.206
11392SOL    HW236184   5.195   8.591   3.332
11393SOL     OW36185   2.546   2.315   3.225
11393SOL    HW136186   2.603   2.355   3.159
11393SOL    HW236187   2.487   2.385   3.251
11394SOL     OW36188   4.657   0.781   8.854
11394SOL    HW136189   4.685   0.848   8.916
11394SOL    HW236190   4.725   0.714   8.859
11395SOL     OW36191   6.016   6.850   8.515
11395SOL    HW136192   5.938   6.870   8.463
11395SOL    HW236193   6.050   6.935   8.541
11396SOL     OW36194   5.805   9.712   3.286
11396SOL    HW136195   5.768   9.783   3.337
11396SOL    HW236196   5.747   9.703   3.210
11397SOL     OW36197   1.905   5.075   8.559
11397SOL    HW136198   1.961   5.092   8.483
11397SOL    HW236199   1.967   5.053   8.629
11398SOL     OW36200   7.855   4.259   2.324
11398SOL    HW136201   7.919   4.326   2.348
11398SOL    HW236202   7.770   4.300   2.338
11399SOL     OW36203   6.772   1.989   8.710
11399SOL    HW136204   6.698   2.020   8.761
11399SOL    HW236205   6.830   1.946   8.774
11400SOL     OW36206   4.313   8.121   5.682
11400SOL    HW136207   4.314   8.049   5.745
11400SOL    HW236208   4.374   8.185   5.718
11401SOL     OW36209   9.004   7.057   5.695
11401SOL    HW136210   9.073   7.031   5.756
11401SOL    HW236211   8.955   7.124   5.741
11402SOL     OW36212   3.422   2.301   1.541
11402SOL    HW136213   3.415   2.374   1.601
11402SOL    HW236214   3.334   2.264   1.537
11403SOL     OW36215  10.514  10.364   6.167
11403SOL    HW136216  10.606  10.378   6.143
11403SOL    HW236217  10.466  10.433   6.122
11404SOL     OW36218   6.033   2.341   9.702
11404SOL    HW136219   6.123   2.321   9.730
11404SOL    HW236220   6.035   2.434   9.679
11405SOL     OW36221   4.933   4.152   5.704
11405SOL    HW136222   5.005   4.155   5.641
11405SOL    HW236223   4.955   4.078   5.761
11406SOL     OW36224   4.059   1.414   1.485
11406SOL    HW136225   4.057   1.435   1.578
11406SOL    HW236226   3.997   1.341   1.475
11407SOL     OW36227   9.291   7.417   1.929
11407SOL    HW136228   9.330   7.332   1.952
11407SOL    HW236229   9.225   7.395   1.863
11408SOL     OW36230   7.600   6.467   7.629
11408SOL    HW136231   7.695   6.467   7.639
11408SOL    HW236232   7.586   6.439   7.538
11409SOL     OW36233   4.185   6.622   3.674
11409SOL    HW136234   4.107   6.678   3.675
11409SOL    HW236235   4.213   6.617   3.765
11410SOL     OW36236   8.090   1.812  10.243
11410SOL    HW136237   8.123   1.802  10.332
11410SOL    HW236238   8.100   1.725  10.204
11411SOL     OW36239   0.386   5.108   7.601
11411SOL    HW136240   0.444   5.123   7.675
11411SOL    HW236241   0.435   5.140   7.525
11412SOL     OW36242  10.393   6.570   4.122
11412SOL    HW136243  10.354   6.617   4.195
11412SOL    HW236244  10.486   6.566   4.143
11413SOL     OW36245   8.484   4.360   7.675
11413SOL    HW136246   8.567   4.321   7.645
11413SOL    HW236247   8.489   4.357   7.770
11414SOL     OW36248   1.483   6.435   2.426
11414SOL    HW136249   1.520   6.371   2.365
11414SOL    HW236250   1.522   6.413   2.510
11415SOL     OW36251   2.594   2.943   9.799
11415SOL    HW136252   2.535   2.867   9.795
11415SOL    HW236253   2.624   2.954   9.708
11416SOL     OW36254   2.529   5.208   6.564
11416SOL    HW136255   2.480   5.279   6.523
11416SOL    HW236256   2.528   5.138   6.498
11417SOL     OW36257   0.862   6.104   2.515
11417SOL    HW136258   0.859   6.011   2.539
11417SOL    HW236259   0.904   6.146   2.589
11418SOL     OW36260   5.372  10.192  10.852
11418SOL    HW136261   5.368  10.199  10.947
11418SOL    HW236262   5.463  10.167  10.833
11419SOL     OW36263   4.189  11.040   1.982
11419SOL    HW136264   4.198  10.969   2.045
11419SOL    HW236265   4.100  11.032   1.949
11420SOL     OW36266   1.801   1.191   5.117
11420SOL    HW136267   1.846   1.119   5.162
11420SOL    HW236268   1.857   1.211   5.042
11421SOL     OW36269   5.607   5.835   4.000
11421SOL    HW136270   5.668   5.785   3.945
11421SOL    HW236271   5.651   5.919   4.014
11422SOL     OW36272   2.422   6.554   3.311
11422SOL    HW136273   2.392   6.544   3.401
11422SOL    HW236274   2.356   6.509   3.258
11423SOL     OW36275   5.027   7.216  10.858
11423SOL    HW136276   4.974   7.208  10.937
11423SOL    HW236277   5.059   7.127  10.841
11424SOL     OW36278   6.889   4.877   4.855
11424SOL    HW136279   6.844   4.798   4.886
11424SOL    HW236280   6.853   4.948   4.908
11425SOL     OW36281   4.556   3.098   1.293
11425SOL    HW136282   4.481   3.052   1.331
11425SOL    HW236283   4.535   3.191   1.302
11426SOL     OW36284   9.210   6.663   5.158
11426SOL    HW136285   9.269   6.736   5.137
11426SOL    HW236286   9.262   6.584   5.140
11427SOL     OW36287   4.099   4.529   7.419
11427SOL    HW136288   4.069   4.465   7.484
11427SOL    HW236289   4.026   4.590   7.410
11428SOL     OW36290  10.838   6.593   6.255
11428SOL    HW136291  10.779   6.522   6.229
11428SOL    HW236292  10.785   6.672   6.248
11429SOL     OW36293   6.195   0.478   5.699
11429SOL    HW136294   6.173   0.568   5.675
11429SOL    HW236295   6.186   0.428   5.617
11430SOL     OW36296   2.334   3.869   6.894
11430SOL    HW136297   2.269   3.927   6.933
11430SOL    HW236298   2.377   3.922   6.827
11431SOL     OW36299   3.994   9.735   4.179
11431SOL    HW136300   3.988   9.801   4.110
11431SOL    HW236301   4.049   9.666   4.141
11432SOL     OW36302  10.356   0.536   7.363
11432SOL    HW136303  10.352   0.445   7.332
11432SOL    HW236304  10.450   0.556   7.365
11433SOL     OW36305   1.469   3.060   0.607
11433SOL    HW136306   1.486   3.106   0.689
11433SOL    HW236307   1.376   3.039   0.610
11434SOL     OW36308   7.575   9.538   3.198
11434SOL    HW136309   7.569   9.472   3.267
11434SOL    HW236310   7.551   9.620   3.240
11435SOL     OW36311   5.443   5.678   4.166
11435SOL    HW136312   5.507   5.692   4.096
11435SOL    HW236313   5.374   5.626   4.125
11436SOL     OW36314   5.672   4.866   3.712
11436SOL    HW136315   5.707   4.886   3.625
11436SOL    HW236316   5.737   4.807   3.751
11437SOL     OW36317   2.533  10.759   3.067
11437SOL    HW136318   2.449  10.778   3.109
11437SOL    HW236319   2.557  10.840   3.023
11438SOL     OW36320   5.656   5.849   5.238
11438SOL    HW136321   5.745   5.816   5.252
11438SOL    HW236322   5.631   5.887   5.322
11439SOL     OW36323  11.090  10.554  10.383
11439SOL    HW136324  11.055  10.632  10.339
11439SOL    HW236325  11.111  10.584  10.471
11440SOL     OW36326   4.815   9.199   4.681
11440SOL    HW136327   4.888   9.193   4.743
11440SOL    HW236328   4.743   9.237   4.731
11441SOL     OW36329   4.766   5.761   4.478
11441SOL    HW136330   4.674   5.748   4.456
11441SOL    HW236331   4.770   5.750   4.573
11442SOL     OW36332  10.971   3.755   5.611
11442SOL    HW136333  11.049   3.742   5.664
11442SOL    HW236334  10.900   3.716   5.662
11443SOL     OW36335  10.833   8.768   0.221
11443SOL    HW136336  10.821   8.857   0.252
11443SOL    HW236337  10.927   8.751   0.232
11444SOL     OW36338   9.308   7.507   5.019
11444SOL    HW136339   9.230   7.549   4.982
11444SOL    HW236340   9.319   7.547   5.105
11445SOL     OW36341   4.781   8.439   1.799
11445SOL    HW136342   4.726   8.441   1.721
11445SOL    HW236343   4.732   8.386   1.862
11446SOL     OW36344   2.324   8.509   7.762
11446SOL    HW136345   2.388   8.489   7.693
11446SOL    HW236346   2.377   8.525   7.840
11447SOL     OW36347   5.022   4.372   9.432
11447SOL    HW136348   4.994   4.286   9.463
11447SOL    HW236349   4.950   4.402   9.377
11448SOL     OW36350   4.977   6.919   4.942
11448SOL    HW136351   5.044   6.918   5.010
11448SOL    HW236352   4.961   6.826   4.923
11449SOL     OW36353   3.994   5.170   3.374
11449SOL    HW136354   3.926   5.160   3.307
11449SOL    HW236355   3.964   5.116   3.447
11450SOL     OW36356   1.646   8.753   5.166
11450SOL    HW136357   1.674   8.831   5.213
11450SOL    HW236358   1.608   8.786   5.084
11451SOL     OW36359   6.327   6.809   4.808
11451SOL    HW136360   6.242   6.800   4.765
11451SOL    HW236361   6.310   6.791   4.900
11452SOL     OW36362   9.493   0.976  10.471
11452SOL    HW136363   9.434   1.047  10.496
11452SOL    HW236364   9.449   0.896  10.501
11453SOL     OW36365   8.031   5.666   9.084
11453SOL    HW136366   8.008   5.672   9.176
11453SOL    HW236367   8.045   5.572   9.069
11454SOL     OW36368   8.905   8.455   5.294
11454SOL    HW136369   8.974   8.390   5.279
11454SOL    HW236370   8.824   8.404   5.293
11455SOL     OW36371   1.914   7.881   1.707
11455SOL    HW136372   1.871   7.822   1.644
11455SOL    HW236373   1.996   7.837   1.728
11456SOL     OW36374   2.959   1.325   5.619
11456SOL    HW136375   3.027   1.392   5.618
11456SOL    HW236376   2.929   1.322   5.709
11457SOL     OW36377   0.466   4.455   4.370
11457SOL    HW136378   0.520   4.476   4.293
11457SOL    HW236379   0.380   4.436   4.334
11458SOL     OW36380   1.495   0.100   5.057
11458SOL    HW136381   1.429   0.137   4.998
11458SOL    HW236382   1.534   0.028   5.007
11459SOL     OW36383   8.935   7.030   7.803
11459SOL    HW136384   9.015   6.979   7.786
11459SOL    HW236385   8.966   7.112   7.840
11460SOL     OW36386   4.094   4.281   7.094
11460SOL    HW136387   4.177   4.316   7.126
11460SOL    HW236388   4.040   4.358   7.078
11461SOL     OW36389   8.398   5.852   5.125
11461SOL    HW136390   8.387   5.935   5.171
11461SOL    HW236391   8.358   5.867   5.039
11462SOL     OW36392  10.351   7.357   8.769
11462SOL    HW136393  10.279   7.342   8.830
11462SOL    HW236394  10.357   7.452   8.761
11463SOL     OW36395   9.685   3.488   1.860
11463SOL    HW136396   9.711   3.516   1.947
11463SOL    HW236397   9.593   3.465   1.868
11464SOL     OW36398   3.744   3.476   4.697
11464SOL    HW136399   3.827   3.505   4.659
11464SOL    HW236400   3.691   3.449   4.622
11465SOL     OW36401   3.974   1.219   6.679
11465SOL    HW136402   3.943   1.145   6.732
11465SOL    HW236403   3.921   1.293   6.707
11466SOL     OW36404   7.243   7.194   0.412
11466SOL    HW136405   7.187   7.143   0.353
11466SOL    HW236406   7.315   7.135   0.433
11467SOL     OW36407   1.946   3.150   4.071
11467SOL    HW136408   1.918   3.241   4.080
11467SOL    HW236409   1.958   3.119   4.160
11468SOL     OW36410   5.973   0.794   3.852
11468SOL    HW136411   5.913   0.854   3.896
11468SOL    HW236412   6.020   0.750   3.922
11469SOL     OW36413   0.095   3.770   1.452
11469SOL    HW136414   0.076   3.752   1.360
11469SOL    HW236415   0.027   3.722   1.500
11470SOL     OW36416   6.580   3.192   4.967
11470SOL    HW136417   6.546   3.102   4.960
11470SOL    HW236418   6.567   3.216   5.058
11471SOL     OW36419   5.593   6.244   4.674
11471SOL    HW136420   5.681   6.281   4.672
11471SOL    HW236421   5.606   6.150   4.660
11472SOL     OW36422   8.286   1.558   2.312
11472SOL    HW136423   8.363   1.595   2.269
11472SOL    HW236424   8.214   1.576   2.251
11473SOL     OW36425   2.961   6.473   8.463
11473SOL    HW136426   2.923   6.557   8.486
11473SOL    HW236427   2.925   6.454   8.376
11474SOL     OW36428   5.031   5.871   1.633
11474SOL    HW136429   4.958   5.914   1.589
11474SOL    HW236430   5.030   5.781   1.599
11475SOL     OW36431   0.431   6.070   6.343
11475SOL    HW136432   0.343   6.101   6.363
11475SOL    HW236433   0.489   6.130   6.388
11476SOL     OW36434   4.490   5.516   8.574
11476SOL    HW136435   4.520   5.575   8.643
11476SOL    HW236436   4.564   5.510   8.513
11477SOL     OW36437  10.154   7.366   5.509
11477SOL    HW136438  10.166   7.396   5.599
11477SOL    HW236439  10.137   7.445   5.459
11478SOL     OW36440   2.880   1.833   8.987
11478SOL    HW136441   2.857   1.742   8.966
11478SOL    HW236442   2.973   1.829   9.012
11479SOL     OW36443   0.687   4.599   4.669
11479SOL    HW136444   0.596   4.612   4.644
11479SOL    HW236445   0.737   4.621   4.590
11480SOL     OW36446   8.679   5.643  10.529
11480SOL    HW136447   8.647   5.723  10.569
11480SOL    HW236448   8.622   5.574  10.563
11481SOL     OW36449  10.045   2.611   5.815
11481SOL    HW136450  10.038   2.516   5.827
11481SOL    HW236451   9.966   2.634   5.766
11482SOL     OW36452   7.473   2.024   1.029
11482SOL    HW136453   7.491   2.118   1.029
11482SOL    HW236454   7.550   1.985   0.987
11483SOL     OW36455  10.239   1.431  10.199
11483SOL    HW136456  10.172   1.468  10.256
11483SOL    HW236457  10.195   1.359  10.154
11484SOL     OW36458   1.674   6.390  10.416
11484SOL    HW136459   1.696   6.481  10.432
11484SOL    HW236460   1.711   6.371  10.329
11485SOL     OW36461  10.009   1.783   8.850
11485SOL    HW136462   9.983   1.870   8.820
11485SOL    HW236463   9.948   1.723   8.807
11486SOL     OW36464   2.801   2.665   3.053
11486SOL    HW136465   2.872   2.607   3.024
11486SOL    HW236466   2.832   2.753   3.033
11487SOL     OW36467   1.685   7.689   2.820
11487SOL    HW136468   1.669   7.600   2.851
11487SOL    HW236469   1.721   7.735   2.895
11488SOL     OW36470  10.443   6.665   0.606
11488SOL    HW136471  10.510   6.703   0.663
11488SOL    HW236472  10.476   6.577   0.586
11489SOL     OW36473   7.690   8.567   2.968
11489SOL    HW136474   7.603   8.558   2.930
11489SOL    HW236475   7.707   8.661   2.969
11490SOL     OW36476   3.905   2.043   1.945
11490SOL    HW136477   3.983   2.080   1.987
11490SOL    HW236478   3.932   2.026   1.854
11491SOL     OW36479   5.125   1.763   6.358
11491SOL    HW136480   5.216   1.734   6.362
11491SOL    HW236481   5.115   1.798   6.269
11492SOL     OW36482   0.068   2.755   5.234
11492SOL    HW136483  -0.013   2.772   5.186
11492SOL    HW236484   0.093   2.840   5.270
11493SOL     OW36485   4.585   2.934   9.913
11493SOL    HW136486   4.644   2.859   9.902
11493SOL    HW236487   4.558   2.957   9.824
11494SOL     OW36488   5.644   3.766   1.956
11494SOL    HW136489   5.727   3.814   1.961
11494SOL    HW236490   5.642   3.713   2.035
11495SOL     OW36491   5.946   9.117   8.620
11495SOL    HW136492   5.911   9.028   8.613
11495SOL    HW236493   5.969   9.127   8.712
11496SOL     OW36494   8.821   8.630   7.969
11496SOL    HW136495   8.818   8.689   7.893
11496SOL    HW236496   8.913   8.605   7.976
11497SOL     OW36497   5.471   6.587   5.235
11497SOL    HW136498   5.400   6.588   5.299
11497SOL    HW236499   5.543   6.542   5.279
11498SOL     OW36500   6.015   5.421  10.111
11498SOL    HW136501   5.995   5.389  10.023
11498SOL    HW236502   6.035   5.514  10.099
11499SOL     OW36503  10.327   4.060   7.116
11499SOL    HW136504  10.362   3.973   7.095
11499SOL    HW236505  10.312   4.058   7.210
11500SOL     OW36506   5.799   0.281   2.507
11500SOL    HW136507   5.799   0.349   2.573
11500SOL    HW236508   5.725   0.225   2.530
11501SOL     OW36509   1.293   4.317   0.369
11501SOL    HW136510   1.272   4.405   0.339
11501SOL    HW236511   1.219   4.264   0.340
11502SOL     OW36512   3.496   3.619   5.372
11502SOL    HW136513   3.554   3.547   5.346
11502SOL    HW236514   3.491   3.675   5.294
11503SOL     OW36515   3.950   7.540   2.364
11503SOL    HW136516   3.999   7.607   2.411
11503SOL    HW236517   3.980   7.457   2.402
11504SOL     OW36518   5.625   5.362   5.207
11504SOL    HW136519   5.687   5.344   5.278
11504SOL    HW236520   5.545   5.316   5.232
11505SOL     OW36521   4.097   3.704   6.173
11505SOL    HW136522   4.155   3.779   6.185
11505SOL    HW236523   4.010   3.742   6.159
11506SOL     OW36524   8.178   3.676   2.993
11506SOL    HW136525   8.249   3.728   2.955
11506SOL    HW236526   8.114   3.668   2.922
11507SOL     OW36527   5.739   6.993   2.397
11507SOL    HW136528   5.752   6.908   2.440
11507SOL    HW236529   5.827   7.029   2.388
11508SOL     OW36530   9.687   4.111   5.472
11508SOL    HW136531   9.701   4.166   5.395
11508SOL    HW236532   9.613   4.055   5.448
11509SOL     OW36533   8.559   2.004   4.587
11509SOL    HW136534   8.562   2.099   4.578
11509SOL    HW236535   8.491   1.976   4.525
11510SOL     OW36536   3.788   5.231   6.245
11510SOL    HW136537   3.760   5.141   6.263
11510SOL    HW236538   3.819   5.264   6.329
11511SOL     OW36539   8.274   2.494   3.286
11511SOL    HW136540   8.351   2.476   3.340
11511SOL    HW236541   8.200   2.464   3.338
11512SOL     OW36542   8.885  10.627  10.804
11512SOL    HW136543   8.944  10.555  10.828
11512SOL    HW236544   8.923  10.704  10.846
11513SOL     OW36545   2.185   7.954   4.493
11513SOL    HW136546   2.164   7.998   4.411
11513SOL    HW236547   2.198   7.862   4.467
11514SOL     OW36548   3.951   0.148   4.824
11514SOL    HW136549   4.022   0.165   4.762
11514SOL    HW236550   3.907   0.070   4.789
11515SOL     OW36551   8.549   5.298   1.483
11515SOL    HW136552   8.543   5.205   1.460
11515SOL    HW236553   8.459   5.324   1.501
11516SOL     OW36554   3.798  10.220   8.969
11516SOL    HW136555   3.887  10.186   8.980
11516SOL    HW236556   3.809  10.314   8.957
11517SOL     OW36557   2.119   7.000   2.579
11517SOL    HW136558   2.031   6.982   2.612
11517SOL    HW236559   2.107   7.070   2.515
11518SOL     OW36560   5.000   1.351   1.303
11518SOL    HW136561   4.990   1.431   1.252
11518SOL    HW236562   5.090   1.353   1.334
11519SOL     OW36563   6.231   4.791   9.708
11519SOL    HW136564   6.178   4.762   9.633
11519SOL    HW236565   6.280   4.866   9.674
11520SOL     OW36566  10.904   7.368   4.359
11520SOL    HW136567  10.866   7.321   4.284
11520SOL    HW236568  10.997   7.378   4.336
11521SOL     OW36569   5.282   8.862  10.438
11521SOL    HW136570   5.202   8.908  10.412
11521SOL    HW236571   5.320   8.831  10.355
11522SOL     OW36572   3.392   2.923   5.766
11522SOL    HW136573   3.385   2.884   5.679
11522SOL    HW236574   3.307   2.907   5.806
11523SOL     OW36575   5.890   8.680   1.608
11523SOL    HW136576   5.953   8.683   1.680
11523SOL    HW236577   5.845   8.596   1.619
11524SOL     OW36578   6.061   7.671   6.422
11524SOL    HW136579   6.065   7.655   6.516
11524SOL    HW236580   5.970   7.655   6.399
11525SOL     OW36581   5.199   0.181   5.790
11525SOL    HW136582   5.152   0.129   5.725
11525SOL    HW236583   5.245   0.116   5.843
11526SOL     OW36584   4.996   8.401   9.607
11526SOL    HW136585   5.068   8.349   9.571
11526SOL    HW236586   4.935   8.335   9.641
11527SOL     OW36587   1.458   9.424  10.795
11527SOL    HW136588   1.552   9.431  10.810
11527SOL    HW236589   1.436   9.335  10.823
11528SOL     OW36590  10.772   7.627   2.871
11528SOL    HW136591  10.691   7.596   2.912
11528SOL    HW236592  10.831   7.643   2.944
11529SOL     OW36593   8.370   0.842   3.627
11529SOL    HW136594   8.411   0.920   3.590
11529SOL    HW236595   8.422   0.822   3.705
11530SOL     OW36596   4.585   6.652   3.845
11530SOL    HW136597   4.510   6.705   3.871
11530SOL    HW236598   4.659   6.712   3.846
11531SOL     OW36599   3.610   4.066   3.884
11531SOL    HW136600   3.636   4.095   3.971
11531SOL    HW236601   3.693   4.061   3.835
11532SOL     OW36602   4.419   7.999   2.102
11532SOL    HW136603   4.389   7.936   2.168
11532SOL    HW236604   4.339   8.040   2.070
11533SOL     OW36605   4.742   5.138   4.740
11533SOL    HW136606   4.835   5.150   4.723
11533SOL    HW236607   4.708   5.226   4.752
11534SOL     OW36608   3.523   9.162   4.521
11534SOL    HW136609   3.468   9.135   4.447
11534SOL    HW236610   3.464   9.162   4.596
11535SOL     OW36611   9.421   2.388   1.562
11535SOL    HW136612   9.338   2.374   1.606
11535SOL    HW236613   9.461   2.301   1.559
11536SOL     OW36614   0.721   5.784   2.847
11536SOL    HW136615   0.733   5.703   2.797
11536SOL    HW236616   0.749   5.762   2.936
11537SOL     OW36617   1.912   6.900   2.812
11537SOL    HW136618   1.930   6.985   2.773
11537SOL    HW236619   1.963   6.899   2.893
11538SOL     OW36620   0.526   1.813   1.986
11538SOL    HW136621   0.472   1.821   1.907
11538SOL    HW236622   0.582   1.736   1.969
11539SOL     OW36623   2.351   9.672   1.836
11539SOL    HW136624   2.424   9.619   1.868
11539SOL    HW236625   2.305   9.700   1.915
11540SOL     OW36626   5.743   7.777   7.277
11540SOL    HW136627   5.729   7.735   7.192
11540SOL    HW236628   5.806   7.720   7.322
11541SOL     OW36629   3.641   4.110   4.163
11541SOL    HW136630   3.554   4.097   4.201
11541SOL    HW236631   3.701   4.063   4.221
11542SOL     OW36632   3.319   5.405   8.673
11542SOL    HW136633   3.315   5.329   8.731
11542SOL    HW236634   3.343   5.477   8.730
11543SOL     OW36635   8.469   4.020   7.681
11543SOL    HW136636   8.467   4.061   7.767
11543SOL    HW236637   8.440   4.088   7.621
11544SOL     OW36638   3.679  10.445   9.907
11544SOL    HW136639   3.653  10.503   9.978
11544SOL    HW236640   3.608  10.381   9.901
11545SOL     OW36641   2.670   8.929   1.467
11545SOL    HW136642   2.700   8.921   1.376
11545SOL    HW236643   2.692   8.845   1.507
11546SOL     OW36644   3.421   9.904  10.350
11546SOL    HW136645   3.371   9.831  10.314
11546SOL    HW236646   3.511   9.872  10.352
11547SOL     OW36647   0.185   4.972   9.391
11547SOL    HW136648   0.231   4.896   9.426
11547SOL    HW236649   0.213   5.045   9.446
11548SOL     OW36650   9.167   0.199   3.728
11548SOL    HW136651   9.087   0.152   3.705
11548SOL    HW236652   9.203   0.227   3.643
11549SOL     OW36653   1.035   9.141   6.426
11549SOL    HW136654   1.050   9.211   6.488
11549SOL    HW236655   1.122   9.103   6.412
11550SOL     OW36656   3.888   8.679  10.386
11550SOL    HW136657   3.950   8.725  10.329
11550SOL    HW236658   3.809   8.733  10.385
11551SOL     OW36659   3.795   5.662   7.243
11551SOL    HW136660   3.871   5.720   7.241
11551SOL    HW236661   3.825   5.585   7.291
11552SOL     OW36662  10.763   9.687   1.558
11552SOL    HW136663  10.785   9.711   1.648
11552SOL    HW236664  10.674   9.652   1.563
11553SOL     OW36665   9.510   8.424   9.410
11553SOL    HW136666   9.481   8.514   9.394
11553SOL    HW236667   9.597   8.419   9.371
11554SOL     OW36668   4.140   3.271   0.926
11554SOL    HW136669   4.061   3.322   0.911
11554SOL    HW236670   4.115   3.181   0.905
11555SOL     OW36671   1.135   9.402   7.771
11555SOL    HW136672   1.130   9.306   7.769
11555SOL    HW236673   1.214   9.421   7.822
11556SOL     OW36674   5.557   5.353  10.050
11556SOL    HW136675   5.576   5.442  10.080
11556SOL    HW236676   5.544   5.362   9.955
11557SOL     OW36677   9.795   6.062  10.328
11557SOL    HW136678   9.792   5.998  10.257
11557SOL    HW236679   9.869   6.034  10.382
11558SOL     OW36680   5.931  10.480   1.938
11558SOL    HW136681   5.950  10.535   1.861
11558SOL    HW236682   5.854  10.429   1.912
11559SOL     OW36683   0.095   1.532   9.348
11559SOL    HW136684   0.180   1.561   9.315
11559SOL    HW236685   0.057   1.610   9.388
11560SOL     OW36686   9.831   7.933   0.988
11560SOL    HW136687   9.839   7.882   1.068
11560SOL    HW236688   9.913   7.983   0.983
11561SOL     OW36689   7.727   8.604   3.887
11561SOL    HW136690   7.757   8.588   3.797
11561SOL    HW236691   7.635   8.577   3.886
11562SOL     OW36692   5.186   2.988   3.064
11562SOL    HW136693   5.111   3.027   3.108
11562SOL    HW236694   5.262   3.031   3.103
11563SOL     OW36695   4.223   7.809   2.266
11563SOL    HW136696   4.279   7.736   2.240
11563SOL    HW236697   4.174   7.831   2.187
11564SOL     OW36698   3.787   8.735   4.187
11564SOL    HW136699   3.709   8.789   4.192
11564SOL    HW236700   3.769   8.661   4.245
11565SOL     OW36701   8.626   4.542   9.540
11565SOL    HW136702   8.677   4.544   9.459
11565SOL    HW236703   8.600   4.633   9.554
11566SOL     OW36704   8.558   8.872   0.423
11566SOL    HW136705   8.488   8.882   0.359
11566SOL    HW236706   8.628   8.826   0.375
11567SOL     OW36707   8.871   5.699   3.819
11567SOL    HW136708   8.792   5.704   3.765
11567SOL    HW236709   8.841   5.718   3.908
11568SOL     OW36710   6.608   6.078   3.115
11568SOL    HW136711   6.565   6.153   3.154
11568SOL    HW236712   6.557   6.003   3.144
11569SOL     OW36713   1.624   5.542   1.269
11569SOL    HW136714   1.616   5.623   1.318
11569SOL    HW236715   1.652   5.477   1.333
11570SOL     OW36716   1.365   5.453   2.843
11570SOL    HW136717   1.349   5.533   2.893
11570SOL    HW236718   1.293   5.395   2.867
11571SOL     OW36719   1.460   5.445   4.590
11571SOL    HW136720   1.527   5.409   4.649
11571SOL    HW236721   1.445   5.375   4.526
11572SOL     OW36722   7.504   2.010   5.950
11572SOL    HW136723   7.466   1.971   5.871
11572SOL    HW236724   7.598   2.012   5.932
11573SOL     OW36725   0.103   6.602   2.283
11573SOL    HW136726   0.102   6.693   2.311
11573SOL    HW236727   0.042   6.558   2.342
11574SOL     OW36728   9.503   4.052   4.161
11574SOL    HW136729   9.581   4.033   4.214
11574SOL    HW236730   9.463   4.128   4.202
11575SOL     OW36731   5.266   5.955   8.602
11575SOL    HW136732   5.231   6.037   8.568
11575SOL    HW236733   5.196   5.920   8.657
11576SOL     OW36734   0.177   8.393   6.560
11576SOL    HW136735   0.131   8.450   6.621
11576SOL    HW236736   0.158   8.430   6.474
11577SOL     OW36737   9.725   2.589   4.801
11577SOL    HW136738   9.715   2.524   4.870
11577SOL    HW236739   9.665   2.560   4.732
11578SOL     OW36740   1.079   2.967   5.612
11578SOL    HW136741   1.149   2.965   5.678
11578SOL    HW236742   0.998   2.967   5.662
11579SOL     OW36743   0.965   2.673   0.939
11579SOL    HW136744   1.054   2.677   0.904
11579SOL    HW236745   0.936   2.764   0.942
11580SOL     OW36746   4.479   7.552   1.647
11580SOL    HW136747   4.465   7.614   1.718
11580SOL    HW236748   4.393   7.514   1.630
11581SOL     OW36749   3.040   3.055   5.407
11581SOL    HW136750   3.117   3.087   5.454
11581SOL    HW236751   3.030   3.115   5.333
11582SOL     OW36752  10.471   9.227  10.439
11582SOL    HW136753  10.414   9.164  10.482
11582SOL    HW236754  10.559   9.199  10.463
11583SOL     OW36755   3.490   5.487   7.763
11583SOL    HW136756   3.586   5.481   7.758
11583SOL    HW236757   3.470   5.480   7.856
11584SOL     OW36758   2.155   9.883   3.481
11584SOL    HW136759   2.206   9.899   3.401
11584SOL    HW236760   2.161   9.965   3.530
11585SOL     OW36761   8.971   7.414   3.090
11585SOL    HW136762   8.955   7.469   3.166
11585SOL    HW236763   8.904   7.440   3.026
11586SOL     OW36764   2.338   4.582   4.509
11586SOL    HW136765   2.330   4.508   4.448
11586SOL    HW236766   2.335   4.659   4.453
11587SOL     OW36767   0.101   9.110   9.534
11587SOL    HW136768   0.126   9.145   9.448
11587SOL    HW236769   0.183   9.102   9.582
11588SOL     OW36770   4.066   6.185   0.805
11588SOL    HW136771   4.020   6.160   0.885
11588SOL    HW236772   4.159   6.183   0.829
11589SOL     OW36773   3.328   3.018  10.546
11589SOL    HW136774   3.368   3.105  10.544
11589SOL    HW236775   3.397   2.959  10.517
11590SOL     OW36776   5.612   6.145   9.288
11590SOL    HW136777   5.536   6.160   9.344
11590SOL    HW236778   5.649   6.232   9.273
11591SOL     OW36779   3.237   5.065   5.042
11591SOL    HW136780   3.277   5.147   5.068
11591SOL    HW236781   3.153   5.064   5.087
11592SOL     OW36782   6.219   8.077   3.628
11592SOL    HW136783   6.186   8.164   3.605
11592SOL    HW236784   6.200   8.068   3.721
11593SOL     OW36785   6.124   4.792   4.341
11593SOL    HW136786   6.063   4.831   4.278
11593SOL    HW236787   6.085   4.810   4.426
11594SOL     OW36788   1.123   7.834   1.865
11594SOL    HW136789   1.066   7.758   1.854
11594SOL    HW236790   1.081   7.903   1.814
11595SOL     OW36791   4.477   2.098   3.915
11595SOL    HW136792   4.394   2.056   3.892
11595SOL    HW236793   4.518   2.038   3.977
11596SOL     OW36794   7.743   8.069   4.132
11596SOL    HW136795   7.704   8.127   4.067
11596SOL    HW236796   7.829   8.046   4.095
11597SOL     OW36797  10.887   6.745   1.542
11597SOL    HW136798  10.861   6.834   1.520
11597SOL    HW236799  10.954   6.755   1.609
11598SOL     OW36800   2.340   9.228   0.615
11598SOL    HW136801   2.336   9.133   0.605
11598SOL    HW236802   2.251   9.253   0.639
11599SOL     OW36803   3.218   1.585   1.586
11599SOL    HW136804   3.196   1.569   1.678
11599SOL    HW236805   3.249   1.500   1.554
11600SOL     OW36806   0.387   1.231  10.657
11600SOL    HW136807   0.459   1.193  10.707
11600SOL    HW236808   0.419   1.317  10.629
11601SOL     OW36809   1.352   0.521   9.121
11601SOL    HW136810   1.346   0.494   9.212
11601SOL    HW236811   1.446   0.518   9.101
11602SOL     OW36812   7.916   7.892   5.969
11602SOL    HW136813   8.012   7.899   5.968
11602SOL    HW236814   7.887   7.960   6.029
11603SOL     OW36815   6.628   8.416   2.269
11603SOL    HW136816   6.540   8.380   2.283
11603SOL    HW236817   6.683   8.338   2.257
11604SOL     OW36818   9.224   4.493   3.521
11604SOL    HW136819   9.224   4.437   3.599
11604SOL    HW236820   9.287   4.562   3.541
11605SOL     OW36821   5.383   1.335   4.922
11605SOL    HW136822   5.419   1.246   4.928
11605SOL    HW236823   5.302   1.325   4.872
11606SOL     OW36824   7.903   7.773   3.010
11606SOL    HW136825   7.824   7.737   3.050
11606SOL    HW236826   7.885   7.866   3.000
11607SOL     OW36827   6.270   1.337   5.159
11607SOL    HW136828   6.183   1.373   5.175
11607SOL    HW236829   6.324   1.369   5.231
11608SOL     OW36830   4.749   9.886  10.570
11608SOL    HW136831   4.826   9.865  10.516
11608SOL    HW236832   4.680   9.905  10.506
11609SOL     OW36833   2.173   5.908   7.887
11609SOL    HW136834   2.126   5.876   7.809
11609SOL    HW236835   2.222   5.832   7.918
11610SOL     OW36836   3.458   8.086   2.859
11610SOL    HW136837   3.428   8.108   2.947
11610SOL    HW236838   3.479   7.992   2.864
11611SOL     OW36839   6.747   9.929   1.598
11611SOL    HW136840   6.702   9.849   1.625
11611SOL    HW236841   6.840   9.906   1.604
11612SOL     OW36842   4.642   1.348   1.264
11612SOL    HW136843   4.627   1.280   1.329
11612SOL    HW236844   4.608   1.428   1.304
11613SOL     OW36845   6.854   3.837  10.367
11613SOL    HW136846   6.910   3.911  10.344
11613SOL    HW236847   6.875   3.819  10.458
11614SOL     OW36848   8.210   4.413   0.247
11614SOL    HW136849   8.149   4.478   0.281
11614SOL    HW236850   8.175   4.390   0.161
11615SOL     OW36851   7.114   0.306   5.360
11615SOL    HW136852   7.046   0.239   5.354
11615SOL    HW236853   7.073   0.377   5.410
11616SOL     OW36854   2.816   8.957   5.417
11616SOL    HW136855   2.779   8.927   5.500
11616SOL    HW236856   2.899   8.909   5.409
11617SOL     OW36857   2.025   7.119   6.704
11617SOL    HW136858   2.014   7.176   6.628
11617SOL    HW236859   1.973   7.160   6.773
11618SOL     OW36860   4.965   4.926   3.047
11618SOL    HW136861   4.902   4.998   3.045
11618SOL    HW236862   5.038   4.956   2.993
11619SOL     OW36863   2.257   1.644   6.116
11619SOL    HW136864   2.316   1.580   6.156
11619SOL    HW236865   2.309   1.724   6.109
11620SOL     OW36866  10.237   8.695  10.523
11620SOL    HW136867  10.277   8.631  10.582
11620SOL    HW236868  10.163   8.648  10.484
11621SOL     OW36869  10.611   5.177   2.258
11621SOL    HW136870  10.597   5.267   2.286
11621SOL    HW236871  10.527   5.149   2.222
11622SOL     OW36872   2.283   5.714   1.714
11622SOL    HW136873   2.275   5.668   1.797
11622SOL    HW236874   2.223   5.668   1.655
11623SOL     OW36875   5.010  10.099   0.941
11623SOL    HW136876   4.916  10.080   0.938
11623SOL    HW236877   5.019  10.183   0.897
11624SOL     OW36878   4.076   4.416   6.572
11624SOL    HW136879   4.131   4.471   6.516
11624SOL    HW236880   4.115   4.329   6.564
11625SOL     OW36881   6.906   6.752   0.399
11625SOL    HW136882   6.967   6.822   0.376
11625SOL    HW236883   6.961   6.685   0.440
11626SOL     OW36884   2.427   7.531   5.549
11626SOL    HW136885   2.497   7.505   5.609
11626SOL    HW236886   2.357   7.467   5.565
11627SOL     OW36887   4.246  10.799  10.554
11627SOL    HW136888   4.305  10.872  10.574
11627SOL    HW236889   4.257  10.784  10.460
11628SOL     OW36890   0.547   7.922   9.434
11628SOL    HW136891   0.558   8.001   9.487
11628SOL    HW236892   0.462   7.933   9.392
11629SOL     OW36893   1.723   9.931   1.947
11629SOL    HW136894   1.733   9.838   1.925
11629SOL    HW236895   1.801   9.951   1.999
11630SOL     OW36896   7.142   0.834   4.556
11630SOL    HW136897   7.225   0.801   4.590
11630SOL    HW236898   7.142   0.927   4.579
11631SOL     OW36899   9.043   7.778   3.723
11631SOL    HW136900   9.105   7.842   3.687
11631SOL    HW236901   8.970   7.778   3.661
11632SOL     OW36902   4.182   3.767   6.988
11632SOL    HW136903   4.105   3.802   7.032
11632SOL    HW236904   4.167   3.672   6.985
11633SOL     OW36905   2.057   2.290   4.149
11633SOL    HW136906   1.970   2.263   4.180
11633SOL    HW236907   2.090   2.214   4.100
11634SOL     OW36908   4.772   1.670   2.085
11634SOL    HW136909   4.689   1.712   2.062
11634SOL    HW236910   4.746   1.593   2.136
11635SOL     OW36911   8.969   1.991   1.161
11635SOL    HW136912   9.015   1.995   1.077
11635SOL    HW236913   8.992   1.905   1.196
11636SOL     OW36914  10.910   3.108   1.410
11636SOL    HW136915  10.889   3.025   1.366
11636SOL    HW236916  10.967   3.153   1.348
11637SOL     OW36917   0.344   0.257   0.028
11637SOL    HW136918   0.438   0.264   0.015
11637SOL    HW236919   0.332   0.172   0.070
11638SOL     OW36920   2.860   4.045   2.426
11638SOL    HW136921   2.953   4.055   2.446
11638SOL    HW236922   2.826   3.989   2.496
11639SOL     OW36923   2.921  10.177   0.849
11639SOL    HW136924   2.991  10.142   0.904
11639SOL    HW236925   2.842  10.134   0.881
11640SOL     OW36926   3.566   8.580   5.236
11640SOL    HW136927   3.508   8.511   5.267
11640SOL    HW236928   3.622   8.600   5.310
11641SOL     OW36929   6.504   2.247   3.503
11641SOL    HW136930   6.537   2.173   3.451
11641SOL    HW236931   6.429   2.211   3.550
11642SOL     OW36932   3.960   7.323   1.034
11642SOL    HW136933   4.039   7.377   1.037
11642SOL    HW236934   3.914   7.351   0.955
11643SOL     OW36935   3.809   4.412   1.841
11643SOL    HW136936   3.774   4.436   1.755
11643SOL    HW236937   3.838   4.321   1.830
11644SOL     OW36938   8.927   3.457   3.221
11644SOL    HW136939   8.965   3.534   3.180
11644SOL    HW236940   8.980   3.443   3.300
11645SOL     OW36941   1.508   1.363   5.278
11645SOL    HW136942   1.417   1.339   5.293
11645SOL    HW236943   1.546   1.370   5.365
11646SOL     OW36944   3.595   1.278   1.690
11646SOL    HW136945   3.627   1.188   1.697
11646SOL    HW236946   3.583   1.292   1.596
11647SOL     OW36947  10.667   2.371   5.031
11647SOL    HW136948  10.687   2.435   4.963
11647SOL    HW236949  10.721   2.295   5.009
11648SOL     OW36950   8.446  10.719   3.902
11648SOL    HW136951   8.538  10.741   3.916
11648SOL    HW236952   8.440  10.626   3.926
11649SOL     OW36953   1.687  10.730  10.890
11649SOL    HW136954   1.649  10.714  10.803
11649SOL    HW236955   1.782  10.721  10.877
11650SOL     OW36956   6.655   4.653   3.340
11650SOL    HW136957   6.741   4.680   3.306
11650SOL    HW236958   6.657   4.557   3.334
11651SOL     OW36959   1.951  10.804   4.831
11651SOL    HW136960   1.881  10.812   4.895
11651SOL    HW236961   2.021  10.759   4.878
11652SOL     OW36962   9.190   5.955   0.210
11652SOL    HW136963   9.201   6.049   0.217
11652SOL    HW236964   9.149   5.942   0.124
11653SOL     OW36965   2.920   3.894   8.985
11653SOL    HW136966   2.946   3.930   9.069
11653SOL    HW236967   2.978   3.936   8.921
11654SOL     OW36968   3.122   0.820   3.017
11654SOL    HW136969   3.031   0.809   3.044
11654SOL    HW236970   3.167   0.744   3.054
11655SOL     OW36971  10.378   9.282   9.461
11655SOL    HW136972  10.295   9.329   9.471
11655SOL    HW236973  10.426   9.332   9.395
11656SOL     OW36974   2.042   4.502  10.163
11656SOL    HW136975   2.122   4.536  10.202
11656SOL    HW236976   1.972   4.534  10.220
11657SOL     OW36977   4.505  10.013   4.042
11657SOL    HW136978   4.588   9.979   4.075
11657SOL    HW236979   4.530  10.070   3.969
11658SOL     OW36980   8.324   5.114   5.939
11658SOL    HW136981   8.319   5.152   6.026
11658SOL    HW236982   8.373   5.032   5.951
11659SOL     OW36983   9.739   5.324   2.794
11659SOL    HW136984   9.781   5.303   2.710
11659SOL    HW236985   9.744   5.242   2.844
11660SOL     OW36986  10.103   3.790  10.859
11660SOL    HW136987  10.088   3.829  10.945
11660SOL    HW236988  10.191   3.818  10.834
11661SOL     OW36989   5.931   0.737   6.136
11661SOL    HW136990   5.919   0.825   6.171
11661SOL    HW236991   6.017   0.709   6.169
11662SOL     OW36992  10.434   4.092   7.955
11662SOL    HW136993  10.429   4.180   7.991
11662SOL    HW236994  10.495   4.046   8.013
11663SOL     OW36995  10.266  -0.000   9.981
11663SOL    HW136996  10.334  -0.067   9.994
11663SOL    HW236997  10.304   0.079  10.018
11664SOL     OW36998   7.662   8.827   9.172
11664SOL    HW136999   7.648   8.907   9.221
11664SOL    HW237000   7.741   8.843   9.121
11665SOL     OW37001   0.895   2.583   3.859
11665SOL    HW137002   0.904   2.570   3.764
11665SOL    HW237003   0.985   2.595   3.890
11666SOL     OW37004   0.596   7.670   6.358
11666SOL    HW137005   0.624   7.761   6.366
11666SOL    HW237006   0.614   7.647   6.266
11667SOL     OW37007   7.265   5.590   3.215
11667SOL    HW137008   7.189   5.535   3.233
11667SOL    HW237009   7.282   5.635   3.297
11668SOL     OW37010   3.926   7.158   4.790
11668SOL    HW137011   3.970   7.073   4.793
11668SOL    HW237012   3.952   7.201   4.871
11669SOL     OW37013   5.431   2.009   4.230
11669SOL    HW137014   5.435   1.967   4.144
11669SOL    HW237015   5.393   2.095   4.213
11670SOL     OW37016   7.934  10.894   3.567
11670SOL    HW137017   7.910  10.838   3.641
11670SOL    HW237018   8.027  10.877   3.553
11671SOL     OW37019   9.680   6.615   8.512
11671SOL    HW137020   9.765   6.613   8.467
11671SOL    HW237021   9.695   6.568   8.594
11672SOL     OW37022   1.087   4.949  10.422
11672SOL    HW137023   1.069   5.013  10.353
11672SOL    HW237024   1.130   4.876  10.376
11673SOL     OW37025   3.478   7.825   0.459
11673SOL    HW137026   3.506   7.827   0.550
11673SOL    HW237027   3.519   7.902   0.419
11674SOL     OW37028   4.344   8.211   1.610
11674SOL    HW137029   4.367   8.118   1.601
11674SOL    HW237030   4.283   8.227   1.538
11675SOL     OW37031   4.765   8.827   1.969
11675SOL    HW137032   4.713   8.861   1.896
11675SOL    HW237033   4.784   8.903   2.023
11676SOL     OW37034   0.047   3.977   0.501
11676SOL    HW137035   0.136   3.995   0.532
11676SOL    HW237036   0.035   3.883   0.515
11677SOL     OW37037   8.432   5.356   4.397
11677SOL    HW137038   8.386   5.295   4.454
11677SOL    HW237039   8.363   5.396   4.344
11678SOL     OW37040   4.849   1.313   6.657
11678SOL    HW137041   4.792   1.322   6.733
11678SOL    HW237042   4.874   1.220   6.657
11679SOL     OW37043   6.831   8.981   9.046
11679SOL    HW137044   6.774   9.032   9.103
11679SOL    HW237045   6.893   9.045   9.010
11680SOL     OW37046   5.153   3.704   2.937
11680SOL    HW137047   5.231   3.745   2.975
11680SOL    HW237048   5.120   3.768   2.874
11681SOL     OW37049   2.692   6.122  10.856
11681SOL    HW137050   2.643   6.175  10.918
11681SOL    HW237051   2.784   6.146  10.870
11682SOL     OW37052   3.728   1.703   2.766
11682SOL    HW137053   3.820   1.706   2.794
11682SOL    HW237054   3.711   1.790   2.730
11683SOL     OW37055  10.556   6.114  10.182
11683SOL    HW137056  10.632   6.087  10.130
11683SOL    HW237057  10.493   6.042  10.172
11684SOL     OW37058  10.713  10.714   4.850
11684SOL    HW137059  10.774  10.642   4.865
11684SOL    HW237060  10.767  10.793   4.857
11685SOL     OW37061   3.494   7.779   8.807
11685SOL    HW137062   3.446   7.699   8.785
11685SOL    HW237063   3.491   7.783   8.902
11686SOL     OW37064   7.819   8.014   1.958
11686SOL    HW137065   7.781   8.043   2.040
11686SOL    HW237066   7.749   8.026   1.893
11687SOL     OW37067   3.724   1.790   4.086
11687SOL    HW137068   3.654   1.767   4.025
11687SOL    HW237069   3.715   1.727   4.157
11688SOL     OW37070   0.200   6.275   1.127
11688SOL    HW137071   0.159   6.246   1.045
11688SOL    HW237072   0.248   6.354   1.102
11689SOL     OW37073   7.492   6.120   2.833
11689SOL    HW137074   7.574   6.077   2.808
11689SOL    HW237075   7.442   6.125   2.751
11690SOL     OW37076   9.019   0.544   5.483
11690SOL    HW137077   9.101   0.517   5.441
11690SOL    HW237078   9.011   0.637   5.462
11691SOL     OW37079   1.606   4.932   6.027
11691SOL    HW137080   1.610   5.015   5.981
11691SOL    HW237081   1.656   4.946   6.107
11692SOL     OW37082   0.487   5.517   6.529
11692SOL    HW137083   0.553   5.585   6.544
11692SOL    HW237084   0.534   5.434   6.542
11693SOL     OW37085   5.913   8.815   2.300
11693SOL    HW137086   5.950   8.845   2.217
11693SOL    HW237087   5.909   8.719   2.290
11694SOL     OW37088   5.267   4.847  10.880
11694SOL    HW137089   5.179   4.840  10.843
11694SOL    HW237090   5.325   4.833  10.805
11695SOL     OW37091   3.280   6.553   9.113
11695SOL    HW137092   3.236   6.622   9.162
11695SOL    HW237093   3.333   6.507   9.178
11696SOL     OW37094   0.205   2.963   4.548
11696SOL    HW137095   0.225   2.902   4.477
11696SOL    HW237096   0.283   2.962   4.603
11697SOL     OW37097   5.707   5.896   9.308
11697SOL    HW137098   5.660   5.979   9.306
11697SOL    HW237099   5.673   5.851   9.385
11698SOL     OW37100   5.631   7.070   3.963
11698SOL    HW137101   5.658   7.057   4.054
11698SOL    HW237102   5.713   7.066   3.913
11699SOL     OW37103   3.780   5.925   8.834
11699SOL    HW137104   3.697   5.963   8.860
11699SOL    HW237105   3.820   5.896   8.916
11700SOL     OW37106   0.676   6.658   6.084
11700SOL    HW137107   0.740   6.679   6.016
11700SOL    HW237108   0.609   6.725   6.075
11701SOL     OW37109   5.097   4.059   4.620
11701SOL    HW137110   5.179   4.054   4.571
11701SOL    HW237111   5.087   3.972   4.659
11702SOL     OW37112   5.638  10.012   2.032
11702SOL    HW137113   5.595  10.091   2.063
11702SOL    HW237114   5.729  10.037   2.019
11703SOL     OW37115  10.241   9.470   4.682
11703SOL    HW137116  10.162   9.523   4.688
11703SOL    HW237117  10.299   9.503   4.751
11704SOL     OW37118   6.361   8.941   8.482
11704SOL    HW137119   6.406   8.856   8.483
11704SOL    HW237120   6.424   9.000   8.441
11705SOL     OW37121   4.366   7.960   4.390
11705SOL    HW137122   4.414   7.951   4.307
11705SOL    HW237123   4.327   7.874   4.404
11706SOL     OW37124   3.391   9.861   0.479
11706SOL    HW137125   3.316   9.912   0.509
11706SOL    HW237126   3.465   9.921   0.484
11707SOL     OW37127   8.993   4.687   1.485
11707SOL    HW137128   8.952   4.612   1.528
11707SOL    HW237129   9.011   4.656   1.396
11708SOL     OW37130  10.159   1.294   2.521
11708SOL    HW137131  10.170   1.378   2.564
11708SOL    HW237132  10.117   1.238   2.586
11709SOL     OW37133   4.043   6.392   3.845
11709SOL    HW137134   3.999   6.412   3.762
11709SOL    HW237135   4.075   6.302   3.834
11710SOL     OW37136   8.849   3.780   0.395
11710SOL    HW137137   8.773   3.831   0.368
11710SOL    HW237138   8.817   3.689   0.399
11711SOL     OW37139   1.343   2.289  10.028
11711SOL    HW137140   1.357   2.383  10.037
11711SOL    HW237141   1.423   2.257   9.986
11712SOL     OW37142   1.140   9.320   3.098
11712SOL    HW137143   1.190   9.269   3.161
11712SOL    HW237144   1.049   9.311   3.126
11713SOL     OW37145  10.744   8.587   6.138
11713SOL    HW137146  10.670   8.647   6.135
11713SOL    HW237147  10.818   8.637   6.103
11714SOL     OW37148   2.465   0.765   1.148
11714SOL    HW137149   2.510   0.681   1.159
11714SOL    HW237150   2.510   0.806   1.073
11715SOL     OW37151   1.422   4.665   4.028
11715SOL    HW137152   1.504   4.653   3.979
11715SOL    HW237153   1.447   4.659   4.120
11716SOL     OW37154   1.008   6.872   9.920
11716SOL    HW137155   1.002   6.946   9.860
11716SOL    HW237156   1.025   6.796   9.863
11717SOL     OW37157   0.480   6.003   1.383
11717SOL    HW137158   0.453   6.075   1.440
11717SOL    HW237159   0.430   5.927   1.414
11718SOL     OW37160   8.503   3.697   1.867
11718SOL    HW137161   8.582   3.745   1.842
11718SOL    HW237162   8.450   3.694   1.787
11719SOL     OW37163   7.577   8.484   1.938
11719SOL    HW137164   7.492   8.516   1.968
11719SOL    HW237165   7.641   8.535   1.987
11720SOL     OW37166   7.126   2.190   2.370
11720SOL    HW137167   7.168   2.158   2.290
11720SOL    HW237168   7.084   2.272   2.344
11721SOL     OW37169   5.117   9.543   5.075
11721SOL    HW137170   5.177   9.609   5.040
11721SOL    HW237171   5.146   9.529   5.165
11722SOL     OW37172   5.662   0.965   5.059
11722SOL    HW137173   5.656   1.005   5.145
11722SOL    HW237174   5.754   0.975   5.034
11723SOL     OW37175   5.472   4.946   4.261
11723SOL    HW137176   5.491   4.975   4.350
11723SOL    HW237177   5.431   4.860   4.272
11724SOL     OW37178  10.416   6.398   6.368
11724SOL    HW137179  10.375   6.348   6.438
11724SOL    HW237180  10.423   6.487   6.402
11725SOL     OW37181   2.789   8.277   6.650
11725SOL    HW137182   2.873   8.306   6.615
11725SOL    HW237183   2.737   8.257   6.572
11726SOL     OW37184   5.217  10.050   0.066
11726SOL    HW137185   5.123  10.053   0.047
11726SOL    HW237186   5.248   9.970   0.022
11727SOL     OW37187   1.977  10.421   0.807
11727SOL    HW137188   1.950  10.382   0.890
11727SOL    HW237189   1.970  10.515   0.821
11728SOL     OW37190   3.683   3.416   4.207
11728SOL    HW137191   3.637   3.335   4.184
11728SOL    HW237192   3.743   3.431   4.134
11729SOL     OW37193   5.595   7.406   5.526
11729SOL    HW137194   5.686   7.392   5.554
11729SOL    HW237195   5.599   7.481   5.467
11730SOL     OW37196   5.234   4.135   1.175
11730SOL    HW137197   5.146   4.171   1.187
11730SOL    HW237198   5.285   4.171   1.247
11731SOL     OW37199   0.847   0.117   6.054
11731SOL    HW137200   0.840   0.210   6.072
11731SOL    HW237201   0.906   0.111   5.979
11732SOL     OW37202   6.480   8.353   4.213
11732SOL    HW137203   6.528   8.435   4.205
11732SOL    HW237204   6.430   8.346   4.131
11733SOL     OW37205   3.948   1.785   3.807
11733SOL    HW137206   3.864   1.759   3.769
11733SOL    HW237207   3.940   1.879   3.820
11734SOL     OW37208   1.320   5.967   3.572
11734SOL    HW137209   1.327   5.964   3.476
11734SOL    HW237210   1.376   5.895   3.602
11735SOL     OW37211  10.131  10.807   5.117
11735SOL    HW137212  10.066  10.844   5.176
11735SOL    HW237213  10.199  10.772   5.175
11736SOL     OW37214   5.321   9.137   1.597
11736SOL    HW137215   5.367   9.171   1.674
11736SOL    HW237216   5.343   9.198   1.527
11737SOL     OW37217   4.429   5.632   2.871
11737SOL    HW137218   4.488   5.686   2.923
11737SOL    HW237219   4.375   5.586   2.935
11738SOL     OW37220   5.085   1.701   7.072
11738SOL    HW137221   5.013   1.643   7.045
11738SOL    HW237222   5.155   1.682   7.010
11739SOL     OW37223   2.997   1.840   5.928
11739SOL    HW137224   2.902   1.849   5.924
11739SOL    HW237225   3.015   1.757   5.882
11740SOL     OW37226   7.959   1.369   3.042
11740SOL    HW137227   7.892   1.389   2.977
11740SOL    HW237228   7.953   1.274   3.053
11741SOL     OW37229   4.271   3.703   7.928
11741SOL    HW137230   4.366   3.713   7.917
11741SOL    HW237231   4.236   3.792   7.920
11742SOL     OW37232   0.776   8.259   6.396
11742SOL    HW137233   0.737   8.302   6.320
11742SOL    HW237234   0.799   8.171   6.365
11743SOL     OW37235   0.915   9.933   6.153
11743SOL    HW137236   1.005   9.957   6.131
11743SOL    HW237237   0.878  10.012   6.192
11744SOL     OW37238   0.996   5.488   3.869
11744SOL    HW137239   0.924   5.463   3.811
11744SOL    HW237240   0.997   5.420   3.937
11745SOL     OW37241   8.461   3.977   1.078
11745SOL    HW137242   8.522   4.024   1.021
11745SOL    HW237243   8.514   3.949   1.152
11746SOL     OW37244   5.140   1.591   5.876
11746SOL    HW137245   5.152   1.503   5.840
11746SOL    HW237246   5.126   1.577   5.969
11747SOL     OW37247  10.413   5.270   1.573
11747SOL    HW137248  10.397   5.176   1.583
11747SOL    HW237249  10.385   5.290   1.483
11748SOL     OW37250   7.593   7.117   7.378
11748SOL    HW137251   7.658   7.055   7.411
11748SOL    HW237252   7.638   7.163   7.307
11749SOL     OW37253   6.170   8.114   4.285
11749SOL    HW137254   6.096   8.103   4.226
11749SOL    HW237255   6.140   8.078   4.368
11750SOL     OW37256   5.659   9.339   8.262
11750SOL    HW137257   5.637   9.431   8.251
11750SOL    HW237258   5.582   9.300   8.304
11751SOL     OW37259   3.002   8.573   6.708
11751SOL    HW137260   3.012   8.481   6.681
11751SOL    HW237261   3.004   8.622   6.626
11752SOL     OW37262   4.347   4.544   3.505
11752SOL    HW137263   4.439   4.518   3.502
11752SOL    HW237264   4.335   4.579   3.593
11753SOL     OW37265   2.889   9.664   2.521
11753SOL    HW137266   2.981   9.655   2.496
11753SOL    HW237267   2.844   9.682   2.438
11754SOL     OW37268   3.023   3.106   9.711
11754SOL    HW137269   3.001   3.023   9.669
11754SOL    HW237270   3.096   3.085   9.769
11755SOL     OW37271   4.811   8.714   1.506
11755SOL    HW137272   4.859   8.711   1.589
11755SOL    HW237273   4.875   8.747   1.442
11756SOL     OW37274   5.351   4.283   4.660
11756SOL    HW137275   5.324   4.236   4.738
11756SOL    HW237276   5.342   4.219   4.589
11757SOL     OW37277   0.380   8.067   5.635
11757SOL    HW137278   0.351   8.081   5.545
11757SOL    HW237279   0.414   7.977   5.635
11758SOL     OW37280   6.767   6.279   4.625
11758SOL    HW137281   6.824   6.350   4.597
11758SOL    HW237282   6.705   6.319   4.686
11759SOL     OW37283   5.283   7.111   5.451
11759SOL    HW137284   5.195   7.135   5.422
11759SOL    HW237285   5.279   7.016   5.462
11760SOL     OW37286   3.290  11.001   6.945
11760SOL    HW137287   3.375  10.965   6.918
11760SOL    HW237288   3.255  11.041   6.865
11761SOL     OW37289   5.231   1.736   3.093
11761SOL    HW137290   5.312   1.714   3.046
11761SOL    HW237291   5.261   1.771   3.176
11762SOL     OW37292   0.724   7.775   3.929
11762SOL    HW137293   0.816   7.779   3.901
11762SOL    HW237294   0.728   7.769   4.024
11763SOL     OW37295  10.577  10.818   4.376
11763SOL    HW137296  10.567  10.730   4.411
11763SOL    HW237297  10.650  10.855   4.425
11764SOL     OW37298   8.968   8.862   3.099
11764SOL    HW137299   8.905   8.811   3.048
11764SOL    HW237300   9.053   8.825   3.075
11765SOL     OW37301   1.770   4.384   5.458
11765SOL    HW137302   1.718   4.400   5.379
11765SOL    HW237303   1.860   4.401   5.430
11766SOL     OW37304   7.809   5.662   5.483
11766SOL    HW137305   7.795   5.621   5.397
11766SOL    HW237306   7.759   5.743   5.479
11767SOL     OW37307   6.567   7.006   1.710
11767SOL    HW137308   6.590   6.937   1.772
11767SOL    HW237309   6.585   7.087   1.756
11768SOL     OW37310   0.404   2.606   3.839
11768SOL    HW137311   0.481   2.595   3.783
11768SOL    HW237312   0.430   2.673   3.901
11769SOL     OW37313   7.938  10.076   1.034
11769SOL    HW137314   7.864  10.033   1.076
11769SOL    HW237315   7.995  10.004   1.006
11770SOL     OW37316   3.538  10.400   2.745
11770SOL    HW137317   3.509  10.462   2.811
11770SOL    HW237318   3.633  10.396   2.756
11771SOL     OW37319   4.359   0.289   4.670
11771SOL    HW137320   4.412   0.368   4.673
11771SOL    HW237321   4.329   0.284   4.579
11772SOL     OW37322   5.170   4.142   5.555
11772SOL    HW137323   5.214   4.057   5.551
11772SOL    HW237324   5.154   4.164   5.463
11773SOL     OW37325   4.458   4.156   4.780
11773SOL    HW137326   4.471   4.092   4.850
11773SOL    HW237327   4.388   4.119   4.726
11774SOL     OW37328   9.314   3.712   8.547
11774SOL    HW137329   9.277   3.800   8.542
11774SOL    HW237330   9.240   3.656   8.571
11775SOL     OW37331   3.781   4.792   8.223
11775SOL    HW137332   3.769   4.756   8.135
11775SOL    HW237333   3.823   4.721   8.271
11776SOL     OW37334   1.853   2.471   6.851
11776SOL    HW137335   1.891   2.383   6.840
11776SOL    HW237336   1.774   2.456   6.902
11777SOL     OW37337   8.688   5.637   1.043
11777SOL    HW137338   8.661   5.605   0.957
11777SOL    HW237339   8.610   5.629   1.097
11778SOL     OW37340   3.255   3.566   3.178
11778SOL    HW137341   3.258   3.487   3.232
11778SOL    HW237342   3.300   3.632   3.230
11779SOL     OW37343   1.383   2.172   6.970
11779SOL    HW137344   1.418   2.146   6.884
11779SOL    HW237345   1.460   2.196   7.021
11780SOL     OW37346   8.520   1.598   1.367
11780SOL    HW137347   8.480   1.521   1.407
11780SOL    HW237348   8.477   1.605   1.281
11781SOL     OW37349   2.405  10.576   9.001
11781SOL    HW137350   2.394  10.491   9.042
11781SOL    HW237351   2.499  10.582   8.983
11782SOL     OW37352   7.091   2.513   5.822
11782SOL    HW137353   7.106   2.601   5.789
11782SOL    HW237354   7.004   2.516   5.861
11783SOL     OW37355   8.475   8.938   4.032
11783SOL    HW137356   8.511   8.860   4.074
11783SOL    HW237357   8.485   9.007   4.097
11784SOL     OW37358   1.432   8.986   2.274
11784SOL    HW137359   1.365   8.952   2.215
11784SOL    HW237360   1.436   8.921   2.345
11785SOL     OW37361   3.500   8.056   6.111
11785SOL    HW137362   3.446   8.041   6.189
11785SOL    HW237363   3.590   8.044   6.141
11786SOL     OW37364   1.763   9.341   9.072
11786SOL    HW137365   1.852   9.318   9.099
11786SOL    HW237366   1.707   9.278   9.117
11787SOL     OW37367   4.829  10.321  10.415
11787SOL    HW137368   4.800  10.286  10.331
11787SOL    HW237369   4.756  10.306  10.474
11788SOL     OW37370   2.123   5.259   7.656
11788SOL    HW137371   2.130   5.228   7.746
11788SOL    HW237372   2.171   5.341   7.655
11789SOL     OW37373   6.783   4.603   4.653
11789SOL    HW137374   6.759   4.605   4.560
11789SOL    HW237375   6.715   4.550   4.694
11790SOL     OW37376   1.370   5.883   9.013
11790SOL    HW137377   1.413   5.822   8.953
11790SOL    HW237378   1.415   5.966   8.999
11791SOL     OW37379   8.395   8.158   0.754
11791SOL    HW137380   8.442   8.239   0.735
11791SOL    HW237381   8.334   8.148   0.681
11792SOL     OW37382  11.027   7.570   7.901
11792SOL    HW137383  10.974   7.510   7.848
11792SOL    HW237384  10.999   7.657   7.874
11793SOL     OW37385   2.249  10.610   2.858
11793SOL    HW137386   2.274  10.696   2.825
11793SOL    HW237387   2.326  10.555   2.844
11794SOL     OW37388   5.439   6.746   2.863
11794SOL    HW137389   5.489   6.718   2.786
11794SOL    HW237390   5.410   6.664   2.904
11795SOL     OW37391   0.850   4.986   9.592
11795SOL    HW137392   0.847   5.058   9.529
11795SOL    HW237393   0.932   4.941   9.573
11796SOL     OW37394   2.657   3.901   0.690
11796SOL    HW137395   2.706   3.907   0.608
11796SOL    HW237396   2.723   3.915   0.758
11797SOL     OW37397   3.587   2.400   6.963
11797SOL    HW137398   3.542   2.377   7.044
11797SOL    HW237399   3.678   2.372   6.977
11798SOL     OW37400   0.709   8.510   3.502
11798SOL    HW137401   0.631   8.541   3.456
11798SOL    HW237402   0.699   8.543   3.591
11799SOL     OW37403   6.979   5.505   0.426
11799SOL    HW137404   7.012   5.468   0.344
11799SOL    HW237405   6.976   5.430   0.486
11800SOL     OW37406   2.106   3.536   3.861
11800SOL    HW137407   2.142   3.543   3.949
11800SOL    HW237408   2.016   3.505   3.873
11801SOL     OW37409   5.085   8.974   3.965
11801SOL    HW137410   5.063   8.946   4.054
11801SOL    HW237411   5.103   9.067   3.973
11802SOL     OW37412   0.731   6.020   1.895
11802SOL    HW137413   0.756   6.071   1.972
11802SOL    HW237414   0.812   6.011   1.845
11803SOL     OW37415   6.930   8.749  10.234
11803SOL    HW137416   6.992   8.736  10.306
11803SOL    HW237417   6.983   8.738  10.155
11804SOL     OW37418   1.961   6.665   5.400
11804SOL    HW137419   1.967   6.571   5.382
11804SOL    HW237420   1.873   6.677   5.436
11805SOL     OW37421  11.025   1.413  10.830
11805SOL    HW137422  11.021   1.336  10.887
11805SOL    HW237423  11.057   1.379  10.746
11806SOL     OW37424   3.492   0.755   2.227
11806SOL    HW137425   3.572   0.798   2.258
11806SOL    HW237426   3.474   0.796   2.142
11807SOL     OW37427   4.079   7.185  10.341
11807SOL    HW137428   3.991   7.148  10.343
11807SOL    HW237429   4.066   7.277  10.320
11808SOL     OW37430   1.525   9.776   5.678
11808SOL    HW137431   1.537   9.850   5.736
11808SOL    HW237432   1.437   9.788   5.641
11809SOL     OW37433   4.489   1.832   1.416
11809SOL    HW137434   4.465   1.875   1.498
11809SOL    HW237435   4.462   1.893   1.347
11810SOL     OW37436   7.031   6.385   9.721
11810SOL    HW137437   6.985   6.309   9.757
11810SOL    HW237438   7.018   6.378   9.626
11811SOL     OW37439   6.548   2.225   1.338
11811SOL    HW137440   6.518   2.150   1.389
11811SOL    HW237441   6.548   2.194   1.247
11812SOL     OW37442   4.663   1.639   7.008
11812SOL    HW137443   4.632   1.553   6.979
11812SOL    HW237444   4.704   1.676   6.930
11813SOL     OW37445   1.387   8.126   6.442
11813SOL    HW137446   1.348   8.211   6.424
11813SOL    HW237447   1.381   8.079   6.358
11814SOL     OW37448  10.983   6.667   3.514
11814SOL    HW137449  11.069   6.663   3.471
11814SOL    HW237450  10.965   6.760   3.523
11815SOL     OW37451   0.308   5.144   1.234
11815SOL    HW137452   0.374   5.094   1.282
11815SOL    HW237453   0.241   5.164   1.299
11816SOL     OW37454   4.893   4.966   2.151
11816SOL    HW137455   4.825   5.028   2.176
11816SOL    HW237456   4.885   4.894   2.214
11817SOL     OW37457   2.939   2.944   0.035
11817SOL    HW137458   2.878   3.004   0.077
11817SOL    HW237459   3.012   2.999   0.008
11818SOL     OW37460   4.199   7.870   7.962
11818SOL    HW137461   4.119   7.820   7.949
11818SOL    HW237462   4.193   7.904   8.051
11819SOL     OW37463   0.141   7.094   3.097
11819SOL    HW137464   0.077   7.045   3.044
11819SOL    HW237465   0.115   7.185   3.086
11820SOL     OW37466   8.972   7.194   5.307
11820SOL    HW137467   8.929   7.202   5.392
11820SOL    HW237468   9.065   7.205   5.326
11821SOL     OW37469   3.226   6.732  10.864
11821SOL    HW137470   3.226   6.641  10.834
11821SOL    HW237471   3.286   6.733  10.938
11822SOL     OW37472   1.998   9.324   5.401
11822SOL    HW137473   2.050   9.352   5.476
11822SOL    HW237474   1.910   9.358   5.419
11823SOL     OW37475   6.512   9.327   3.333
11823SOL    HW137476   6.592   9.275   3.329
11823SOL    HW237477   6.479   9.314   3.422
11824SOL     OW37478   8.508   9.135  10.643
11824SOL    HW137479   8.542   9.220  10.671
11824SOL    HW237480   8.421   9.154  10.609
11825SOL     OW37481  10.863   9.354  10.313
11825SOL    HW137482  10.878   9.381  10.403
11825SOL    HW237483  10.888   9.430  10.260
11826SOL     OW37484   3.623   2.028   6.214
11826SOL    HW137485   3.677   1.950   6.202
11826SOL    HW237486   3.654   2.066   6.296
11827SOL     OW37487   6.685   9.296   6.806
11827SOL    HW137488   6.701   9.375   6.754
11827SOL    HW237489   6.593   9.301   6.829
11828SOL     OW37490   2.317  10.403   1.910
11828SOL    HW137491   2.409  10.427   1.921
11828SOL    HW237492   2.272  10.486   1.895
11829SOL     OW37493   1.816   2.052   9.602
11829SOL    HW137494   1.778   1.964   9.608
11829SOL    HW237495   1.821   2.082   9.692
11830SOL     OW37496   3.377   0.284   5.394
11830SOL    HW137497   3.284   0.306   5.397
11830SOL    HW237498   3.382   0.196   5.433
11831SOL     OW37499   3.122   4.386   3.010
11831SOL    HW137500   3.051   4.346   3.059
11831SOL    HW237501   3.169   4.312   2.972
11832SOL     OW37502   7.080   6.710   9.811
11832SOL    HW137503   7.111   6.620   9.825
11832SOL    HW237504   6.991   6.700   9.778
11833SOL     OW37505   6.285   0.581   8.363
11833SOL    HW137506   6.278   0.604   8.270
11833SOL    HW237507   6.316   0.490   8.362
11834SOL     OW37508   7.055   6.356   8.837
11834SOL    HW137509   7.078   6.435   8.885
11834SOL    HW237510   7.021   6.387   8.753
11835SOL     OW37511   0.353   1.912   2.362
11835SOL    HW137512   0.265   1.942   2.339
11835SOL    HW237513   0.351   1.904   2.457
11836SOL     OW37514   0.479   8.600   8.018
11836SOL    HW137515   0.437   8.680   8.048
11836SOL    HW237516   0.566   8.602   8.058
11837SOL     OW37517   6.122   9.530   8.055
11837SOL    HW137518   6.111   9.554   7.963
11837SOL    HW237519   6.171   9.448   8.053
11838SOL     OW37520   4.856   7.084   7.577
11838SOL    HW137521   4.861   7.009   7.636
11838SOL    HW237522   4.933   7.075   7.520
11839SOL     OW37523   4.232   6.957   3.297
11839SOL    HW137524   4.287   6.894   3.250
11839SOL    HW237525   4.143   6.934   3.272
11840SOL     OW37526   5.314   9.223   7.191
11840SOL    HW137527   5.227   9.207   7.154
11840SOL    HW237528   5.334   9.143   7.240
11841SOL     OW37529  10.932   4.232   8.823
11841SOL    HW137530  10.859   4.202   8.768
11841SOL    HW237531  11.008   4.184   8.790
11842SOL     OW37532  10.719   5.060   8.576
11842SOL    HW137533  10.754   5.028   8.659
11842SOL    HW237534  10.756   5.147   8.566
11843SOL     OW37535   2.123   3.360   7.539
11843SOL    HW137536   2.188   3.365   7.609
11843SOL    HW237537   2.158   3.295   7.477
11844SOL     OW37538   2.143   8.515   5.146
11844SOL    HW137539   2.227   8.528   5.190
11844SOL    HW237540   2.099   8.447   5.197
11845SOL     OW37541   0.559   7.186  10.580
11845SOL    HW137542   0.516   7.164  10.497
11845SOL    HW237543   0.498   7.245  10.624
11846SOL     OW37544   5.043   4.016   7.058
11846SOL    HW137545   5.014   4.015   7.149
11846SOL    HW237546   5.082   3.929   7.044
11847SOL     OW37547   4.029   8.227   7.746
11847SOL    HW137548   4.055   8.302   7.799
11847SOL    HW237549   4.005   8.265   7.661
11848SOL     OW37550   5.972   5.285   4.097
11848SOL    HW137551   5.926   5.274   4.180
11848SOL    HW237552   6.057   5.321   4.121
11849SOL     OW37553   1.635   3.562   7.589
11849SOL    HW137554   1.725   3.537   7.608
11849SOL    HW237555   1.632   3.568   7.493
11850SOL     OW37556   2.441   7.337   3.280
11850SOL    HW137557   2.454   7.422   3.238
11850SOL    HW237558   2.506   7.335   3.350
11851SOL     OW37559  10.608   7.026   3.562
11851SOL    HW137560  10.652   7.025   3.647
11851SOL    HW237561  10.517   7.049   3.581
11852SOL     OW37562   5.351  10.079  10.031
11852SOL    HW137563   5.281  10.136  10.000
11852SOL    HW237564   5.414  10.077   9.959
11853SOL     OW37565   2.502   1.569   8.616
11853SOL    HW137566   2.553   1.644   8.645
11853SOL    HW237567   2.460   1.598   8.535
11854SOL     OW37568   4.767   2.536   2.651
11854SOL    HW137569   4.685   2.542   2.602
11854SOL    HW237570   4.755   2.593   2.726
11855SOL     OW37571   6.707   4.649   1.481
11855SOL    HW137572   6.690   4.570   1.533
11855SOL    HW237573   6.636   4.709   1.504
11856SOL     OW37574   7.478   3.043   4.379
11856SOL    HW137575   7.499   3.050   4.472
11856SOL    HW237576   7.554   2.998   4.341
11857SOL     OW37577   1.597   7.069   7.644
11857SOL    HW137578   1.504   7.064   7.665
11857SOL    HW237579   1.627   6.978   7.646
11858SOL     OW37580   6.879   4.215  10.416
11858SOL    HW137581   6.793   4.174  10.410
11858SOL    HW237582   6.865   4.292  10.471
11859SOL     OW37583   2.388   0.301   6.619
11859SOL    HW137584   2.376   0.248   6.698
11859SOL    HW237585   2.300   0.313   6.584
11860SOL     OW37586   4.517   1.841   6.646
11860SOL    HW137587   4.455   1.836   6.573
11860SOL    HW237588   4.571   1.762   6.636
11861SOL     OW37589   4.905   2.865   3.968
11861SOL    HW137590   4.929   2.852   4.059
11861SOL    HW237591   4.843   2.938   3.969
11862SOL     OW37592   6.550  10.723   8.749
11862SOL    HW137593   6.477  10.678   8.706
11862SOL    HW237594   6.602  10.759   8.677
11863SOL     OW37595   4.904   3.342   1.947
11863SOL    HW137596   4.954   3.332   1.865
11863SOL    HW237597   4.823   3.294   1.931
11864SOL     OW37598   2.184   7.782   6.751
11864SOL    HW137599   2.279   7.774   6.739
11864SOL    HW237600   2.151   7.797   6.662
11865SOL     OW37601   1.943   4.734   4.703
11865SOL    HW137602   1.956   4.788   4.781
11865SOL    HW237603   1.854   4.701   4.711
11866SOL     OW37604   3.536   1.912   5.541
11866SOL    HW137605   3.454   1.876   5.576
11866SOL    HW237606   3.599   1.840   5.549
11867SOL     OW37607   4.144   5.301   8.294
11867SOL    HW137608   4.096   5.350   8.227
11867SOL    HW237609   4.196   5.238   8.244
11868SOL     OW37610   4.159   2.019   6.906
11868SOL    HW137611   4.154   2.081   6.833
11868SOL    HW237612   4.249   1.985   6.903
11869SOL     OW37613   6.419   1.327   1.959
11869SOL    HW137614   6.429   1.418   1.931
11869SOL    HW237615   6.329   1.304   1.935
11870SOL     OW37616   1.269   2.284   7.490
11870SOL    HW137617   1.283   2.189   7.495
11870SOL    HW237618   1.258   2.302   7.396
11871SOL     OW37619   3.660   3.975   7.603
11871SOL    HW137620   3.624   4.051   7.648
11871SOL    HW237621   3.715   3.933   7.668
11872SOL     OW37622   1.919   3.334   6.413
11872SOL    HW137623   1.854   3.267   6.390
11872SOL    HW237624   1.929   3.386   6.333
11873SOL     OW37625   1.633   2.974   6.102
11873SOL    HW137626   1.697   3.042   6.122
11873SOL    HW237627   1.621   2.979   6.007
11874SOL     OW37628  10.056   7.803  10.653
11874SOL    HW137629  10.055   7.773  10.744
11874SOL    HW237630  10.027   7.727  10.602
11875SOL     OW37631   5.322   1.004   9.242
11875SOL    HW137632   5.417   0.999   9.233
11875SOL    HW237633   5.300   0.931   9.300
11876SOL     OW37634   6.618   0.793   7.155
11876SOL    HW137635   6.660   0.712   7.124
11876SOL    HW237636   6.643   0.799   7.247
11877SOL     OW37637   3.343   5.306   1.867
11877SOL    HW137638   3.419   5.322   1.923
11877SOL    HW237639   3.269   5.301   1.927
11878SOL     OW37640   7.578   0.714   4.624
11878SOL    HW137641   7.635   0.765   4.567
11878SOL    HW237642   7.634   0.688   4.697
11879SOL     OW37643   9.691  10.775   8.678
11879SOL    HW137644   9.720  10.862   8.706
11879SOL    HW237645   9.767  10.719   8.693
11880SOL     OW37646  10.546  10.133   4.577
11880SOL    HW137647  10.625  10.113   4.527
11880SOL    HW237648  10.482  10.068   4.548
11881SOL     OW37649   8.686  10.701   7.327
11881SOL    HW137650   8.687  10.739   7.415
11881SOL    HW237651   8.594  10.686   7.308
11882SOL     OW37652   0.649   0.790   5.644
11882SOL    HW137653   0.627   0.697   5.644
11882SOL    HW237654   0.631   0.819   5.554
11883SOL     OW37655   0.900   8.132   4.304
11883SOL    HW137656   0.904   8.212   4.356
11883SOL    HW237657   0.863   8.066   4.363
11884SOL     OW37658   6.885   7.896   2.617
11884SOL    HW137659   6.965   7.893   2.563
11884SOL    HW237660   6.829   7.960   2.573
11885SOL     OW37661   3.332   6.406   5.565
11885SOL    HW137662   3.387   6.437   5.637
11885SOL    HW237663   3.253   6.460   5.570
11886SOL     OW37664   0.517   5.275   1.042
11886SOL    HW137665   0.590   5.319   1.085
11886SOL    HW237666   0.482   5.340   0.982
11887SOL     OW37667   5.252  10.502   6.370
11887SOL    HW137668   5.234  10.408   6.363
11887SOL    HW237669   5.231  10.537   6.283
11888SOL     OW37670   3.048   7.244   1.410
11888SOL    HW137671   3.074   7.321   1.360
11888SOL    HW237672   3.130   7.195   1.421
11889SOL     OW37673   5.785   4.516   4.831
11889SOL    HW137674   5.795   4.601   4.788
11889SOL    HW237675   5.724   4.468   4.774
11890SOL     OW37676   3.619   8.507   7.778
11890SOL    HW137677   3.559   8.567   7.821
11890SOL    HW237678   3.629   8.434   7.840
11891SOL     OW37679   9.288   0.447   8.253
11891SOL    HW137680   9.256   0.360   8.229
11891SOL    HW237681   9.383   0.441   8.244
11892SOL     OW37682  10.936  10.134   8.342
11892SOL    HW137683  10.914  10.129   8.435
11892SOL    HW237684  10.852  10.132   8.297
11893SOL     OW37685   1.251   6.321   9.280
11893SOL    HW137686   1.266   6.369   9.361
11893SOL    HW237687   1.166   6.351   9.249
11894SOL     OW37688   4.051   9.453   4.372
11894SOL    HW137689   4.141   9.460   4.340
11894SOL    HW237690   4.027   9.542   4.397
11895SOL     OW37691   9.314   1.611   0.356
11895SOL    HW137692   9.402   1.588   0.325
11895SOL    HW237693   9.294   1.544   0.421
11896SOL     OW37694   2.127   3.757   5.550
11896SOL    HW137695   2.075   3.713   5.483
11896SOL    HW237696   2.063   3.807   5.601
11897SOL     OW37697   0.882   4.831   7.202
11897SOL    HW137698   0.922   4.843   7.115
11897SOL    HW237699   0.804   4.778   7.185
11898SOL     OW37700   7.230   7.563   4.966
11898SOL    HW137701   7.318   7.598   4.981
11898SOL    HW237702   7.237   7.518   4.882
11899SOL     OW37703   4.463   4.828   7.993
11899SOL    HW137704   4.375   4.804   7.964
11899SOL    HW237705   4.521   4.769   7.943
11900SOL     OW37706   4.991   7.693   9.411
11900SOL    HW137707   4.968   7.785   9.417
11900SOL    HW237708   5.062   7.681   9.474
11901SOL     OW37709   2.628   4.479   6.685
11901SOL    HW137710   2.587   4.407   6.637
11901SOL    HW237711   2.706   4.440   6.724
11902SOL     OW37712   9.754   8.305  10.000
11902SOL    HW137713   9.749   8.394  10.034
11902SOL    HW237714   9.744   8.249  10.077
11903SOL     OW37715   0.260   3.371   1.262
11903SOL    HW137716   0.242   3.357   1.355
11903SOL    HW237717   0.350   3.403   1.259
11904SOL     OW37718   9.681   9.381   8.119
11904SOL    HW137719   9.625   9.322   8.169
11904SOL    HW237720   9.658   9.468   8.150
11905SOL     OW37721   4.822   0.233   5.074
11905SOL    HW137722   4.871   0.282   5.008
11905SOL    HW237723   4.852   0.268   5.157
11906SOL     OW37724   2.936  10.326   7.438
11906SOL    HW137725   2.865  10.344   7.499
11906SOL    HW237726   2.892  10.292   7.360
11907SOL     OW37727   6.433   5.478   4.016
11907SOL    HW137728   6.525   5.452   4.003
11907SOL    HW237729   6.401   5.497   3.927
11908SOL     OW37730   4.406   2.179   5.919
11908SOL    HW137731   4.317   2.182   5.884
11908SOL    HW237732   4.413   2.256   5.975
11909SOL     OW37733   6.158   8.544   3.038
11909SOL    HW137734   6.251   8.566   3.037
11909SOL    HW237735   6.145   8.497   3.120
11910SOL     OW37736   4.024   3.823   7.199
11910SOL    HW137737   4.003   3.784   7.284
11910SOL    HW237738   4.058   3.909   7.220
11911SOL     OW37739   7.621   3.966   9.147
11911SOL    HW137740   7.547   4.011   9.187
11911SOL    HW237741   7.598   3.873   9.151
11912SOL     OW37742   4.691  10.903   5.878
11912SOL    HW137743   4.659  10.864   5.797
11912SOL    HW237744   4.672  10.838   5.945
11913SOL     OW37745   1.951   6.162   4.370
11913SOL    HW137746   1.979   6.253   4.365
11913SOL    HW237747   1.864   6.161   4.330
11914SOL     OW37748  10.070   1.984   4.578
11914SOL    HW137749  10.060   1.904   4.525
11914SOL    HW237750   9.981   2.009   4.601
11915SOL     OW37751   1.680   6.477   4.493
11915SOL    HW137752   1.708   6.420   4.565
11915SOL    HW237753   1.617   6.424   4.444
11916SOL     OW37754   7.617   8.616   7.861
11916SOL    HW137755   7.587   8.645   7.947
11916SOL    HW237756   7.692   8.672   7.841
11917SOL     OW37757   6.702   1.111   9.283
11917SOL    HW137758   6.667   1.076   9.365
11917SOL    HW237759   6.695   1.206   9.292
11918SOL     OW37760   6.734   5.064   9.834
11918SOL    HW137761   6.709   5.045   9.924
11918SOL    HW237762   6.804   5.129   9.842
11919SOL     OW37763   8.164   2.660   9.105
11919SOL    HW137764   8.254   2.664   9.073
11919SOL    HW237765   8.169   2.686   9.197
11920SOL     OW37766   3.959   8.895  10.019
11920SOL    HW137767   3.946   8.831   9.949
11920SOL    HW237768   4.011   8.964   9.978
11921SOL     OW37769   1.675   4.140   3.062
11921SOL    HW137770   1.748   4.127   3.122
11921SOL    HW237771   1.712   4.122   2.975
11922SOL     OW37772   1.348   2.922   8.870
11922SOL    HW137773   1.408   2.860   8.828
11922SOL    HW237774   1.369   2.916   8.963
11923SOL     OW37775   0.546   2.221   0.671
11923SOL    HW137776   0.500   2.137   0.659
11923SOL    HW237777   0.622   2.214   0.613
11924SOL     OW37778   2.687   7.045   4.356
11924SOL    HW137779   2.688   7.060   4.261
11924SOL    HW237780   2.753   6.977   4.370
11925SOL     OW37781   7.107   3.027  10.166
11925SOL    HW137782   7.084   3.101  10.222
11925SOL    HW237783   7.199   3.010  10.185
11926SOL     OW37784   0.586   3.970   6.059
11926SOL    HW137785   0.639   3.909   6.007
11926SOL    HW237786   0.598   4.054   6.016
11927SOL     OW37787   2.943   2.600   3.965
11927SOL    HW137788   2.906   2.583   4.051
11927SOL    HW237789   2.957   2.513   3.927
11928SOL     OW37790   8.077   0.542   4.258
11928SOL    HW137791   8.068   0.540   4.353
11928SOL    HW237792   8.096   0.633   4.237
11929SOL     OW37793   4.931   2.783   0.642
11929SOL    HW137794   4.883   2.707   0.608
11929SOL    HW237795   4.864   2.849   0.657
11930SOL     OW37796   4.267   2.105  10.912
11930SOL    HW137797   4.310   2.190  10.904
11930SOL    HW237798   4.195   2.109  10.849
11931SOL     OW37799   2.065   0.116   6.053
11931SOL    HW137800   2.067   0.209   6.076
11931SOL    HW237801   1.972   0.095   6.047
11932SOL     OW37802   1.877   6.011   9.515
11932SOL    HW137803   1.886   6.080   9.450
11932SOL    HW237804   1.926   6.042   9.591
11933SOL     OW37805   3.352   0.165   3.403
11933SOL    HW137806   3.447   0.167   3.414
11933SOL    HW237807   3.317   0.204   3.483
11934SOL     OW37808   6.080   1.594   7.032
11934SOL    HW137809   6.160   1.642   7.011
11934SOL    HW237810   6.017   1.661   7.056
11935SOL     OW37811   4.715   8.052   7.973
11935SOL    HW137812   4.628   8.013   7.984
11935SOL    HW237813   4.741   8.079   8.061
11936SOL     OW37814   3.885   4.963   0.356
11936SOL    HW137815   3.943   4.889   0.373
11936SOL    HW237816   3.893   4.978   0.261
11937SOL     OW37817   3.079   3.725   7.253
11937SOL    HW137818   3.082   3.820   7.258
11937SOL    HW237819   3.064   3.696   7.343
11938SOL     OW37820   3.692   8.238   2.843
11938SOL    HW137821   3.620   8.175   2.836
11938SOL    HW237822   3.718   8.254   2.752
11939SOL     OW37823   5.487   7.318   2.813
11939SOL    HW137824   5.501   7.227   2.786
11939SOL    HW237825   5.426   7.352   2.748
11940SOL     OW37826   6.890   5.154   3.788
11940SOL    HW137827   6.817   5.178   3.845
11940SOL    HW237828   6.951   5.108   3.845
11941SOL     OW37829   5.200   0.090   8.389
11941SOL    HW137830   5.202   0.129   8.301
11941SOL    HW237831   5.280   0.122   8.431
11942SOL     OW37832   1.580   2.190   5.274
11942SOL    HW137833   1.640   2.245   5.324
11942SOL    HW237834   1.540   2.133   5.339
11943SOL     OW37835   5.320   8.153   5.474
11943SOL    HW137836   5.383   8.128   5.541
11943SOL    HW237837   5.245   8.187   5.522
11944SOL     OW37838   3.749   6.420   3.879
11944SOL    HW137839   3.752   6.327   3.904
11944SOL    HW237840   3.835   6.454   3.904
11945SOL     OW37841   4.626   7.458   7.892
11945SOL    HW137842   4.668   7.399   7.829
11945SOL    HW237843   4.533   7.450   7.874
11946SOL     OW37844   5.331   5.276  10.352
11946SOL    HW137845   5.352   5.351  10.407
11946SOL    HW237846   5.328   5.311  10.263
11947SOL     OW37847   2.999   6.850  10.931
11947SOL    HW137848   3.085   6.808  10.922
11947SOL    HW237849   3.019   6.940  10.955
11948SOL     OW37850   5.713   1.827   8.029
11948SOL    HW137851   5.754   1.866   8.106
11948SOL    HW237852   5.726   1.732   8.040
11949SOL     OW37853   9.226  10.855   7.075
11949SOL    HW137854   9.244  10.933   7.127
11949SOL    HW237855   9.143  10.874   7.031
11950SOL     OW37856   3.135   1.414   6.265
11950SOL    HW137857   3.061   1.394   6.207
11950SOL    HW237858   3.154   1.506   6.248
11951SOL     OW37859   2.848   5.424   4.954
11951SOL    HW137860   2.769   5.372   4.968
11951SOL    HW237861   2.919   5.360   4.959
11952SOL     OW37862   9.201   0.720   4.595
11952SOL    HW137863   9.172   0.737   4.505
11952SOL    HW237864   9.282   0.770   4.604
11953SOL     OW37865   2.322   5.316   1.600
11953SOL    HW137866   2.271   5.254   1.652
11953SOL    HW237867   2.409   5.315   1.640
11954SOL     OW37868   3.706  10.819   8.957
11954SOL    HW137869   3.755  10.867   9.024
11954SOL    HW237870   3.773  10.789   8.895
11955SOL     OW37871   9.939   7.976   9.575
11955SOL    HW137872   9.944   8.040   9.646
11955SOL    HW237873   9.865   8.004   9.522
11956SOL     OW37874   3.317   4.991   0.586
11956SOL    HW137875   3.247   4.988   0.521
11956SOL    HW237876   3.322   4.901   0.619
11957SOL     OW37877   3.855   4.976   7.602
11957SOL    HW137878   3.871   4.938   7.688
11957SOL    HW237879   3.942   5.003   7.571
11958SOL     OW37880   4.819   7.990   1.749
11958SOL    HW137881   4.746   7.982   1.810
11958SOL    HW237882   4.786   7.951   1.668
11959SOL     OW37883   8.676   0.522   7.562
11959SOL    HW137884   8.683   0.616   7.577
11959SOL    HW237885   8.618   0.514   7.486
11960SOL     OW37886   9.949   6.387   9.296
11960SOL    HW137887  10.038   6.420   9.311
11960SOL    HW237888   9.943   6.308   9.350
11961SOL     OW37889   1.905   5.687   8.022
11961SOL    HW137890   1.995   5.714   8.039
11961SOL    HW237891   1.868   5.670   8.108
11962SOL     OW37892   0.469   5.973   5.027
11962SOL    HW137893   0.546   5.977   4.970
11962SOL    HW237894   0.444   6.064   5.040
11963SOL     OW37895   5.173   6.739   4.274
11963SOL    HW137896   5.085   6.767   4.249
11963SOL    HW237897   5.160   6.653   4.314
11964SOL     OW37898   4.188   5.860   5.509
11964SOL    HW137899   4.191   5.955   5.521
11964SOL    HW237900   4.098   5.836   5.529
11965SOL     OW37901  10.933   6.239   2.715
11965SOL    HW137902  10.863   6.236   2.650
11965SOL    HW237903  10.901   6.298   2.782
11966SOL     OW37904   7.039  10.775  10.428
11966SOL    HW137905   7.001  10.701  10.474
11966SOL    HW237906   7.113  10.802  10.482
11967SOL     OW37907  10.765   1.061  11.073
11967SOL    HW137908  10.718   0.978  11.065
11967SOL    HW237909  10.831   1.044  11.140
11968SOL     OW37910   6.725   4.842   9.115
11968SOL    HW137911   6.667   4.851   9.191
11968SOL    HW237912   6.668   4.855   9.039
11969SOL     OW37913   0.820   3.642   7.433
11969SOL    HW137914   0.881   3.568   7.438
11969SOL    HW237915   0.802   3.664   7.524
11970SOL     OW37916   1.831   5.785   4.923
11970SOL    HW137917   1.791   5.825   4.846
11970SOL    HW237918   1.789   5.699   4.930
11971SOL     OW37919   9.283   5.726   5.454
11971SOL    HW137920   9.211   5.697   5.510
11971SOL    HW237921   9.346   5.654   5.457
11972SOL     OW37922   6.625   6.924   9.967
11972SOL    HW137923   6.550   6.983   9.960
11972SOL    HW237924   6.599   6.858  10.032
11973SOL     OW37925   4.598   6.261   9.816
11973SOL    HW137926   4.687   6.292   9.835
11973SOL    HW237927   4.563   6.234   9.900
11974SOL     OW37928   6.810   7.035   1.520
11974SOL    HW137929   6.795   6.942   1.541
11974SOL    HW237930   6.753   7.083   1.580
11975SOL     OW37931   2.939   5.800   6.108
11975SOL    HW137932   3.021   5.759   6.078
11975SOL    HW237933   2.963   5.846   6.188
11976SOL     OW37934   2.294   6.318   6.914
11976SOL    HW137935   2.280   6.411   6.932
11976SOL    HW237936   2.334   6.316   6.827
11977SOL     OW37937   3.565   2.232   5.337
11977SOL    HW137938   3.638   2.271   5.289
11977SOL    HW237939   3.604   2.200   5.418
11978SOL     OW37940   2.278   1.961   5.972
11978SOL    HW137941   2.334   1.906   6.027
11978SOL    HW237942   2.242   2.027   6.031
11979SOL     OW37943  10.160   2.077  10.817
11979SOL    HW137944  10.156   2.096  10.910
11979SOL    HW237945  10.246   2.110  10.789
11980SOL     OW37946   4.120   1.617   4.357
11980SOL    HW137947   4.089   1.582   4.273
11980SOL    HW237948   4.192   1.559   4.382
11981SOL     OW37949   2.792   6.947   7.124
11981SOL    HW137950   2.713   6.939   7.178
11981SOL    HW237951   2.863   6.960   7.187
11982SOL     OW37952   3.581   5.911   2.012
11982SOL    HW137953   3.542   5.824   2.001
11982SOL    HW237954   3.667   5.904   1.971
11983SOL     OW37955   2.085   2.759   3.667
11983SOL    HW137956   2.012   2.697   3.662
11983SOL    HW237957   2.058   2.823   3.733
11984SOL     OW37958   1.534   9.523   9.020
11984SOL    HW137959   1.601   9.460   9.049
11984SOL    HW237960   1.463   9.513   9.083
11985SOL     OW37961   4.047   4.351   4.347
11985SOL    HW137962   4.102   4.411   4.297
11985SOL    HW237963   4.105   4.315   4.414
11986SOL     OW37964   4.632   3.437   6.427
11986SOL    HW137965   4.563   3.467   6.486
11986SOL    HW237966   4.586   3.387   6.359
11987SOL     OW37967   3.613  10.013   8.710
11987SOL    HW137968   3.570   9.940   8.665
11987SOL    HW237969   3.679  10.044   8.648
11988SOL     OW37970   3.216   9.376   4.517
11988SOL    HW137971   3.237   9.331   4.435
11988SOL    HW237972   3.284   9.347   4.578
11989SOL     OW37973   4.818   7.907   5.866
11989SOL    HW137974   4.780   7.978   5.814
11989SOL    HW237975   4.743   7.852   5.890
11990SOL     OW37976   6.771   5.181   8.265
11990SOL    HW137977   6.747   5.089   8.275
11990SOL    HW237978   6.727   5.208   8.184
11991SOL     OW37979   5.054   3.502   5.914
11991SOL    HW137980   5.015   3.417   5.934
11991SOL    HW237981   5.076   3.539   5.999
11992SOL     OW37982   6.225   5.948   3.493
11992SOL    HW137983   6.283   5.881   3.529
11992SOL    HW237984   6.162   5.965   3.563
11993SOL     OW37985   2.986   3.182   3.436
11993SOL    HW137986   2.981   3.093   3.400
11993SOL    HW237987   2.927   3.233   3.381
11994SOL     OW37988   6.746   4.690  10.886
11994SOL    HW137989   6.820   4.747  10.908
11994SOL    HW237990   6.783   4.625  10.825
11995SOL     OW37991   8.766  10.925   2.988
11995SOL    HW137992   8.675  10.896   2.980
11995SOL    HW237993   8.796  10.934   2.897
11996SOL     OW37994   2.809   4.029   2.925
11996SOL    HW137995   2.759   3.956   2.962
11996SOL    HW237996   2.826   4.002   2.834
11997SOL     OW37997   1.698   4.862   1.758
11997SOL    HW137998   1.748   4.931   1.802
11997SOL    HW237999   1.607   4.890   1.764
11998SOL     OW38000  10.076   6.330   4.545
11998SOL    HW138001  10.131   6.378   4.483
11998SOL    HW238002  10.046   6.396   4.607
11999SOL     OW38003   8.015   5.777   6.828
11999SOL    HW138004   8.070   5.700   6.814
11999SOL    HW238005   7.961   5.755   6.904
12000SOL     OW38006  10.511   2.322   5.570
12000SOL    HW138007  10.491   2.233   5.541
12000SOL    HW238008  10.443   2.342   5.633
12001SOL     OW38009   0.869   8.606   7.956
12001SOL    HW138010   0.810   8.539   7.990
12001SOL    HW238011   0.906   8.567   7.876
12002SOL     OW38012   0.723   4.108   3.437
12002SOL    HW138013   0.649   4.067   3.482
12002SOL    HW238014   0.715   4.078   3.346
12003SOL     OW38015   3.049   3.168   4.758
12003SOL    HW138016   3.064   3.258   4.729
12003SOL    HW238017   3.002   3.176   4.841
12004SOL     OW38018   5.003   5.546   6.634
12004SOL    HW138019   5.094   5.575   6.624
12004SOL    HW238020   4.951   5.618   6.600
12005SOL     OW38021   3.683   6.206   7.421
12005SOL    HW138022   3.599   6.161   7.409
12005SOL    HW238023   3.715   6.175   7.505
12006SOL     OW38024   0.702   6.636   3.807
12006SOL    HW138025   0.742   6.585   3.877
12006SOL    HW238026   0.712   6.581   3.729
12007SOL     OW38027   6.485   8.392   0.609
12007SOL    HW138028   6.431   8.319   0.579
12007SOL    HW238029   6.439   8.470   0.578
12008SOL     OW38030   9.364   4.147   6.922
12008SOL    HW138031   9.373   4.091   6.999
12008SOL    HW238032   9.453   4.152   6.886
12009SOL     OW38033   1.152   5.790  10.923
12009SOL    HW138034   1.075   5.841  10.897
12009SOL    HW238035   1.220   5.815  10.860
12010SOL     OW38036   1.090   6.213   8.556
12010SOL    HW138037   1.142   6.184   8.631
12010SOL    HW238038   1.106   6.307   8.551
12011SOL     OW38039   1.570   5.599   7.204
12011SOL    HW138040   1.524   5.537   7.147
12011SOL    HW238041   1.501   5.650   7.246
12012SOL     OW38042   8.835   5.342   5.023
12012SOL    HW138043   8.882   5.258   5.028
12012SOL    HW238044   8.890   5.403   5.072
12013SOL     OW38045   4.196   5.331   8.953
12013SOL    HW138046   4.135   5.314   8.881
12013SOL    HW238047   4.280   5.348   8.910
12014SOL     OW38048   5.695   6.880   9.698
12014SOL    HW138049   5.622   6.860   9.639
12014SOL    HW238050   5.662   6.861   9.785
12015SOL     OW38051   4.134   6.232   9.379
12015SOL    HW138052   4.207   6.259   9.434
12015SOL    HW238053   4.099   6.313   9.343
12016SOL     OW38054   2.398   7.635   5.086
12016SOL    HW138055   2.456   7.707   5.062
12016SOL    HW238056   2.447   7.556   5.063
12017SOL     OW38057  11.032   0.966   1.063
12017SOL    HW138058  11.001   0.906   0.995
12017SOL    HW238059  10.953   1.012   1.092
12018SOL     OW38060   5.877   9.336   8.445
12018SOL    HW138061   5.792   9.341   8.402
12018SOL    HW238062   5.861   9.288   8.526
12019SOL     OW38063   1.006   5.739   6.976
12019SOL    HW138064   0.933   5.696   6.930
12019SOL    HW238065   1.071   5.755   6.907
12020SOL     OW38066   1.725   3.563   6.460
12020SOL    HW138067   1.761   3.476   6.441
12020SOL    HW238068   1.634   3.546   6.485
12021SOL     OW38069   4.726   8.676   9.176
12021SOL    HW138070   4.714   8.704   9.085
12021SOL    HW238071   4.744   8.756   9.224
12022SOL     OW38072   1.845   1.389   1.720
12022SOL    HW138073   1.753   1.370   1.702
12022SOL    HW238074   1.845   1.477   1.756
12023SOL     OW38075   4.055   8.449   6.116
12023SOL    HW138076   4.021   8.366   6.081
12023SOL    HW238077   4.149   8.433   6.128
12024SOL     OW38078   3.793   7.165  10.214
12024SOL    HW138079   3.754   7.174  10.127
12024SOL    HW238080   3.719   7.155  10.273
12025SOL     OW38081   3.596   5.309   9.316
12025SOL    HW138082   3.620   5.276   9.402
12025SOL    HW238083   3.662   5.272   9.257
12026SOL     OW38084   2.320   2.669   5.896
12026SOL    HW138085   2.387   2.724   5.856
12026SOL    HW238086   2.364   2.627   5.970
12027SOL     OW38087   7.878   6.311  10.357
12027SOL    HW138088   7.837   6.377  10.413
12027SOL    HW238089   7.949   6.274  10.410
12028SOL     OW38090   1.584   6.313   8.614
12028SOL    HW138091   1.653   6.331   8.550
12028SOL    HW238092   1.626   6.324   8.699
12029SOL     OW38093   3.458   0.366   4.785
12029SOL    HW138094   3.411   0.427   4.841
12029SOL    HW238095   3.431   0.279   4.816
12030SOL     OW38096   5.751   9.729   9.409
12030SOL    HW138097   5.701   9.800   9.369
12030SOL    HW238098   5.842   9.758   9.406
12031SOL     OW38099   5.021   6.411   8.726
12031SOL    HW138100   5.040   6.347   8.795
12031SOL    HW238101   4.932   6.389   8.697
12032SOL     OW38102   0.436   9.006  10.894
12032SOL    HW138103   0.367   9.025  10.830
12032SOL    HW238104   0.417   8.916  10.923
12033SOL     OW38105   7.445   9.979   7.040
12033SOL    HW138106   7.435   9.885   7.054
12033SOL    HW238107   7.441   9.990   6.945
12034SOL     OW38108   1.863   4.913   6.519
12034SOL    HW138109   1.846   4.820   6.534
12034SOL    HW238110   1.931   4.914   6.451
12035SOL     OW38111   4.282   0.940   2.216
12035SOL    HW138112   4.313   0.937   2.125
12035SOL    HW238113   4.300   0.852   2.250
12036SOL     OW38114   3.929   6.696  10.011
12036SOL    HW138115   3.976   6.683  10.093
12036SOL    HW238116   3.868   6.767  10.029
12037SOL     OW38117   7.499   4.275   9.820
12037SOL    HW138118   7.422   4.314   9.779
12037SOL    HW238119   7.557   4.254   9.746
12038SOL     OW38120   1.676   4.335   1.472
12038SOL    HW138121   1.711   4.276   1.539
12038SOL    HW238122   1.702   4.295   1.389
12039SOL     OW38123  10.978   7.570   7.489
12039SOL    HW138124  11.071   7.592   7.494
12039SOL    HW238125  10.967   7.499   7.552
12040SOL     OW38126   0.151   1.734   6.353
12040SOL    HW138127   0.138   1.808   6.294
12040SOL    HW238128   0.216   1.679   6.308
12041SOL     OW38129   4.976   4.684  10.369
12041SOL    HW138130   4.889   4.675  10.408
12041SOL    HW238131   4.962   4.735  10.289
12042SOL     OW38132   9.819   0.910   3.192
12042SOL    HW138133   9.754   0.978   3.208
12042SOL    HW238134   9.847   0.924   3.101
12043SOL     OW38135   0.964   9.181   6.003
12043SOL    HW138136   1.035   9.116   6.000
12043SOL    HW238137   0.889   9.132   6.036
12044SOL     OW38138  10.249  10.903   4.577
12044SOL    HW138139  10.157  10.928   4.579
12044SOL    HW238140  10.289  10.965   4.516
12045SOL     OW38141   6.290   4.024   2.383
12045SOL    HW138142   6.365   3.973   2.414
12045SOL    HW238143   6.313   4.114   2.403
12046SOL     OW38144   3.048   0.619   0.115
12046SOL    HW138145   3.010   0.705   0.131
12046SOL    HW238146   3.038   0.572   0.199
12047SOL     OW38147   7.231   5.695  10.166
12047SOL    HW138148   7.221   5.757  10.094
12047SOL    HW238149   7.238   5.610  10.122
12048SOL     OW38150   0.508   5.228   0.357
12048SOL    HW138151   0.583   5.170   0.370
12048SOL    HW238152   0.439   5.192   0.413
12049SOL     OW38153  10.198  10.757   8.348
12049SOL    HW138154  10.246  10.745   8.430
12049SOL    HW238155  10.250  10.710   8.283
12050SOL     OW38156   6.465  10.817   9.001
12050SOL    HW138157   6.380  10.857   8.982
12050SOL    HW238158   6.492  10.778   8.918
12051SOL     OW38159   5.437   2.344  10.493
12051SOL    HW138160   5.402   2.312  10.410
12051SOL    HW238161   5.523   2.380  10.470
12052SOL     OW38162   5.163   8.542   3.564
12052SOL    HW138163   5.098   8.471   3.566
12052SOL    HW238164   5.116   8.619   3.595
12053SOL     OW38165   7.212   6.255   3.791
12053SOL    HW138166   7.198   6.194   3.864
12053SOL    HW238167   7.191   6.203   3.713
12054SOL     OW38168   5.078   8.326   0.369
12054SOL    HW138169   5.044   8.244   0.331
12054SOL    HW238170   5.087   8.307   0.462
12055SOL     OW38171   1.630   6.932   1.611
12055SOL    HW138172   1.638   6.856   1.553
12055SOL    HW238173   1.643   6.896   1.699
12056SOL     OW38174   1.306   8.505   5.774
12056SOL    HW138175   1.369   8.450   5.820
12056SOL    HW238176   1.341   8.594   5.782
12057SOL     OW38177   6.750   7.282   8.768
12057SOL    HW138178   6.729   7.192   8.740
12057SOL    HW238179   6.789   7.272   8.855
12058SOL     OW38180   6.321   9.036  10.256
12058SOL    HW138181   6.413   9.040  10.231
12058SOL    HW238182   6.322   9.033  10.351
12059SOL     OW38183   6.366   5.103   3.700
12059SOL    HW138184   6.287   5.152   3.676
12059SOL    HW238185   6.399   5.145   3.779
12060SOL     OW38186   9.587   7.146   6.082
12060SOL    HW138187   9.604   7.200   6.159
12060SOL    HW238188   9.499   7.112   6.094
12061SOL     OW38189   1.363   0.031   3.490
12061SOL    HW138190   1.277  -0.010   3.488
12061SOL    HW238191   1.379   0.050   3.582
12062SOL     OW38192   6.934   8.415   9.432
12062SOL    HW138193   6.913   8.325   9.459
12062SOL    HW238194   6.986   8.404   9.352
12063SOL     OW38195   0.807   4.346   2.391
12063SOL    HW138196   0.823   4.354   2.485
12063SOL    HW238197   0.812   4.252   2.374
12064SOL     OW38198   5.487   8.193   1.356
12064SOL    HW138199   5.558   8.133   1.380
12064SOL    HW238200   5.407   8.141   1.367
12065SOL     OW38201  10.605   3.941   1.713
12065SOL    HW138202  10.551   3.862   1.718
12065SOL    HW238203  10.544   4.011   1.691
12066SOL     OW38204   9.517   6.402   2.947
12066SOL    HW138205   9.487   6.484   2.909
12066SOL    HW238206   9.440   6.344   2.944
12067SOL     OW38207   1.124   2.349   8.929
12067SOL    HW138208   1.033   2.370   8.951
12067SOL    HW238209   1.124   2.254   8.916
12068SOL     OW38210   8.279   8.828  10.739
12068SOL    HW138211   8.302   8.764  10.806
12068SOL    HW238212   8.336   8.807  10.665
12069SOL     OW38213   0.892   7.517   7.291
12069SOL    HW138214   0.817   7.459   7.306
12069SOL    HW238215   0.944   7.472   7.224
12070SOL     OW38216   2.202   3.252   9.356
12070SOL    HW138217   2.157   3.252   9.271
12070SOL    HW238218   2.277   3.310   9.343
12071SOL     OW38219   2.150   4.943   6.082
12071SOL    HW138220   2.086   5.001   6.041
12071SOL    HW238221   2.235   4.981   6.059
12072SOL     OW38222  11.068  10.296  10.434
12072SOL    HW138223  11.060  10.389  10.412
12072SOL    HW238224  11.105  10.256  10.355
12073SOL     OW38225   2.153   5.724   8.114
12073SOL    HW138226   2.166   5.644   8.165
12073SOL    HW238227   2.225   5.781   8.140
12074SOL     OW38228   6.166   0.469   2.576
12074SOL    HW138229   6.111   0.433   2.506
12074SOL    HW238230   6.247   0.494   2.532
12075SOL     OW38231   7.507   8.870   3.901
12075SOL    HW138232   7.579   8.928   3.877
12075SOL    HW238233   7.459   8.857   3.819
12076SOL     OW38234   2.473   1.629   3.198
12076SOL    HW138235   2.540   1.591   3.254
12076SOL    HW238236   2.391   1.592   3.230
12077SOL     OW38237   4.864   5.451   6.829
12077SOL    HW138238   4.928   5.468   6.760
12077SOL    HW238239   4.832   5.363   6.810
12078SOL     OW38240   0.460   5.724   7.238
12078SOL    HW138241   0.519   5.652   7.261
12078SOL    HW238242   0.403   5.687   7.170
12079SOL     OW38243   3.770   7.286   2.024
12079SOL    HW138244   3.763   7.198   1.987
12079SOL    HW238245   3.681   7.309   2.049
12080SOL     OW38246   2.063   1.709  10.149
12080SOL    HW138247   2.097   1.710  10.238
12080SOL    HW238248   2.078   1.798  10.117
12081SOL     OW38249   4.862   1.445  10.057
12081SOL    HW138250   4.875   1.536  10.082
12081SOL    HW238251   4.824   1.449   9.969
12082SOL     OW38252   0.044   6.808   7.179
12082SOL    HW138253   0.125   6.855   7.160
12082SOL    HW238254  -0.025   6.860   7.138
12083SOL     OW38255   2.625   8.670   3.386
12083SOL    HW138256   2.612   8.619   3.466
12083SOL    HW238257   2.616   8.761   3.413
12084SOL     OW38258   5.043   2.233   7.101
12084SOL    HW138259   5.053   2.259   7.192
12084SOL    HW238260   4.991   2.152   7.104
12085SOL     OW38261   7.087   5.370   1.418
12085SOL    HW138262   7.103   5.420   1.338
12085SOL    HW238263   7.163   5.311   1.425
12086SOL     OW38264   2.524   6.278   1.878
12086SOL    HW138265   2.538   6.354   1.821
12086SOL    HW238266   2.546   6.203   1.823
12087SOL     OW38267   4.870   2.197  10.358
12087SOL    HW138268   4.829   2.145  10.427
12087SOL    HW238269   4.797   2.229  10.305
12088SOL     OW38270   3.159   4.861  10.280
12088SOL    HW138271   3.076   4.841  10.236
12088SOL    HW238272   3.139   4.934  10.338
12089SOL     OW38273  10.223   7.547   2.931
12089SOL    HW138274  10.169   7.536   2.852
12089SOL    HW238275  10.312   7.524   2.902
12090SOL     OW38276   9.408   3.080   7.136
12090SOL    HW138277   9.499   3.109   7.127
12090SOL    HW238278   9.413   3.002   7.192
12091SOL     OW38279   9.848   3.324   7.416
12091SOL    HW138280   9.878   3.241   7.453
12091SOL    HW238281   9.855   3.387   7.487
12092SOL     OW38282   1.374   7.102   7.935
12092SOL    HW138283   1.441   7.104   8.003
12092SOL    HW238284   1.353   7.194   7.919
12093SOL     OW38285   9.548   5.802   0.165
12093SOL    HW138286   9.576   5.822   0.076
12093SOL    HW238287   9.579   5.875   0.218
12094SOL     OW38288   5.423   4.412   8.073
12094SOL    HW138289   5.384   4.347   8.014
12094SOL    HW238290   5.386   4.392   8.159
12095SOL     OW38291   1.700   0.044   8.084
12095SOL    HW138292   1.790   0.041   8.052
12095SOL    HW238293   1.654   0.100   8.021
12096SOL     OW38294   2.092   2.789   8.598
12096SOL    HW138295   2.024   2.749   8.544
12096SOL    HW238296   2.150   2.716   8.621
12097SOL     OW38297   3.013   5.222   9.664
12097SOL    HW138298   2.950   5.171   9.613
12097SOL    HW238299   3.087   5.233   9.604
12098SOL     OW38300   9.048   4.970   7.983
12098SOL    HW138301   9.097   4.978   7.901
12098SOL    HW238302   9.115   4.953   8.049
12099SOL     OW38303   4.278   2.803  10.175
12099SOL    HW138304   4.186   2.817  10.195
12099SOL    HW238305   4.279   2.726  10.118
12100SOL     OW38306   2.885   6.036   7.715
12100SOL    HW138307   2.908   6.047   7.807
12100SOL    HW238308   2.963   5.997   7.675
12101SOL     OW38309   4.351   6.394   0.328
12101SOL    HW138310   4.419   6.367   0.265
12101SOL    HW238311   4.343   6.488   0.315
12102SOL     OW38312   4.833   6.477   2.555
12102SOL    HW138313   4.891   6.434   2.492
12102SOL    HW238314   4.780   6.406   2.591
12103SOL     OW38315   9.987   4.463   8.913
12103SOL    HW138316   9.931   4.538   8.932
12103SOL    HW238317   9.932   4.406   8.859
12104SOL     OW38318   4.208   3.422   5.497
12104SOL    HW138319   4.171   3.335   5.510
12104SOL    HW238320   4.138   3.482   5.521
12105SOL     OW38321   8.342   6.176   7.995
12105SOL    HW138322   8.379   6.128   7.920
12105SOL    HW238323   8.276   6.117   8.031
12106SOL     OW38324   8.878  10.904   1.798
12106SOL    HW138325   8.947  10.930   1.737
12106SOL    HW238326   8.818  10.852   1.745
12107SOL     OW38327   0.836   8.947   1.981
12107SOL    HW138328   0.863   8.953   1.889
12107SOL    HW238329   0.809   8.855   1.991
12108SOL     OW38330   6.029   7.927  10.487
12108SOL    HW138331   5.963   7.993  10.507
12108SOL    HW238332   6.035   7.928  10.391
12109SOL     OW38333   3.133   5.651  10.990
12109SOL    HW138334   3.069   5.718  10.966
12109SOL    HW238335   3.166   5.678  11.075
12110SOL     OW38336   5.431   2.910   9.395
12110SOL    HW138337   5.356   2.882   9.342
12110SOL    HW238338   5.465   2.829   9.433
12111SOL     OW38339   3.305   1.302  10.703
12111SOL    HW138340   3.269   1.308  10.791
12111SOL    HW238341   3.333   1.210  10.695
12112SOL     OW38342   0.780   4.142   0.559
12112SOL    HW138343   0.749   4.154   0.469
12112SOL    HW238344   0.753   4.053   0.582
12113SOL     OW38345   1.459   3.157   3.159
12113SOL    HW138346   1.492   3.074   3.193
12113SOL    HW238347   1.445   3.211   3.236
12114SOL     OW38348   6.354   9.867   9.598
12114SOL    HW138349   6.300   9.794   9.568
12114SOL    HW238350   6.416   9.881   9.526
12115SOL     OW38351   7.680   5.591   9.154
12115SOL    HW138352   7.673   5.653   9.226
12115SOL    HW238353   7.684   5.505   9.196
12116SOL     OW38354   2.616   4.212   9.747
12116SOL    HW138355   2.642   4.135   9.797
12116SOL    HW238356   2.641   4.286   9.802
12117SOL     OW38357   0.542   7.194   6.095
12117SOL    HW138358   0.616   7.136   6.075
12117SOL    HW238359   0.508   7.220   6.009
12118SOL     OW38360   3.355   7.489   2.472
12118SOL    HW138361   3.325   7.568   2.427
12118SOL    HW238362   3.450   7.501   2.481
12119SOL     OW38363   0.858  11.071   8.706
12119SOL    HW138364   0.819  11.058   8.619
12119SOL    HW238365   0.927  11.136   8.692
12120SOL     OW38366   2.348   2.524   6.458
12120SOL    HW138367   2.379   2.442   6.496
12120SOL    HW238368   2.297   2.497   6.381
12121SOL     OW38369   6.401   8.269  10.786
12121SOL    HW138370   6.413   8.183  10.826
12121SOL    HW238371   6.446   8.329  10.845
12122SOL     OW38372   3.455   1.891   0.430
12122SOL    HW138373   3.522   1.959   0.438
12122SOL    HW238374   3.474   1.830   0.501
12123SOL     OW38375   3.595   9.294   7.771
12123SOL    HW138376   3.635   9.218   7.729
12123SOL    HW238377   3.542   9.257   7.841
12124SOL     OW38378   3.952   8.701   9.014
12124SOL    HW138379   3.878   8.682   8.956
12124SOL    HW238380   3.916   8.761   9.079
12125SOL     OW38381   2.356   7.644   9.761
12125SOL    HW138382   2.428   7.673   9.705
12125SOL    HW238383   2.391   7.650   9.850
12126SOL     OW38384   5.483  10.291   7.822
12126SOL    HW138385   5.422  10.310   7.893
12126SOL    HW238386   5.444  10.217   7.776
12127SOL     OW38387   0.445   5.361   7.040
12127SOL    HW138388   0.406   5.291   6.988
12127SOL    HW238389   0.426   5.337   7.130
12128SOL     OW38390   1.032   8.131   7.481
12128SOL    HW138391   1.036   8.062   7.547
12128SOL    HW238392   1.063   8.088   7.401
12129SOL     OW38393   2.650   4.468   5.297
12129SOL    HW138394   2.642   4.394   5.357
12129SOL    HW238395   2.619   4.433   5.213
12130SOL     OW38396   9.087   8.506   0.140
12130SOL    HW138397   9.077   8.600   0.130
12130SOL    HW238398   9.127   8.477   0.059
12131SOL     OW38399   5.531  10.966   3.876
12131SOL    HW138400   5.507  11.043   3.824
12131SOL    HW238401   5.593  11.000   3.941
12132SOL     OW38402   6.194   2.561   6.515
12132SOL    HW138403   6.163   2.651   6.509
12132SOL    HW238404   6.274   2.559   6.462
12133SOL     OW38405   5.875   0.637   7.962
12133SOL    HW138406   5.836   0.612   8.046
12133SOL    HW238407   5.958   0.590   7.959
12134SOL     OW38408   5.954   7.722   1.884
12134SOL    HW138409   5.921   7.642   1.843
12134SOL    HW238410   5.893   7.790   1.856
12135SOL     OW38411   8.568   4.414   7.118
12135SOL    HW138412   8.492   4.404   7.174
12135SOL    HW238413   8.549   4.358   7.042
12136SOL     OW38414   5.232   0.113   8.880
12136SOL    HW138415   5.200   0.023   8.887
12136SOL    HW238416   5.157   0.167   8.905
12137SOL     OW38417   3.010   8.384   9.247
12137SOL    HW138418   3.000   8.398   9.341
12137SOL    HW238419   2.926   8.410   9.209
12138SOL     OW38420   1.437   9.348   5.039
12138SOL    HW138421   1.512   9.382   4.990
12138SOL    HW238422   1.423   9.412   5.109
12139SOL     OW38423   2.180   4.385   0.683
12139SOL    HW138424   2.147   4.341   0.761
12139SOL    HW238425   2.141   4.337   0.610
12140SOL     OW38426   0.921   6.024   5.683
12140SOL    HW138427   0.874   6.066   5.755
12140SOL    HW238428   0.935   6.093   5.619
12141SOL     OW38429   5.993   3.516   2.738
12141SOL    HW138430   5.965   3.541   2.826
12141SOL    HW238431   5.997   3.420   2.740
12142SOL     OW38432   0.954   4.802   2.059
12142SOL    HW138433   0.991   4.886   2.084
12142SOL    HW238434   0.864   4.804   2.090
12143SOL     OW38435   7.468   4.675   7.227
12143SOL    HW138436   7.441   4.734   7.157
12143SOL    HW238437   7.400   4.683   7.293
12144SOL     OW38438   4.005  10.182   4.680
12144SOL    HW138439   4.046  10.159   4.763
12144SOL    HW238440   3.981  10.097   4.642
12145SOL     OW38441   8.632   7.649   7.726
12145SOL    HW138442   8.570   7.688   7.665
12145SOL    HW238443   8.659   7.721   7.782
12146SOL     OW38444   6.757   7.579   1.502
12146SOL    HW138445   6.774   7.632   1.579
12146SOL    HW238446   6.709   7.637   1.443
12147SOL     OW38447   8.122   3.685   0.121
12147SOL    HW138448   8.078   3.652   0.200
12147SOL    HW238449   8.100   3.621   0.053
12148SOL     OW38450   3.018   9.934   7.583
12148SOL    HW138451   3.010   9.838   7.589
12148SOL    HW238452   2.932   9.967   7.607
12149SOL     OW38453   1.734   4.408   6.314
12149SOL    HW138454   1.801   4.472   6.292
12149SOL    HW238455   1.654   4.459   6.325
12150SOL     OW38456   1.722   3.393   2.197
12150SOL    HW138457   1.700   3.312   2.151
12150SOL    HW238458   1.761   3.449   2.129
12151SOL     OW38459   8.921   4.439   7.229
12151SOL    HW138460   8.923   4.346   7.204
12151SOL    HW238461   8.943   4.439   7.322
12152SOL     OW38462   9.242   8.819   0.529
12152SOL    HW138463   9.324   8.839   0.574
12152SOL    HW238464   9.264   8.823   0.436
12153SOL     OW38465  10.112   0.425   6.121
12153SOL    HW138466  10.106   0.520   6.110
12153SOL    HW238467  10.193   0.401   6.076
12154SOL     OW38468   1.599  10.416   5.956
12154SOL    HW138469   1.676  10.360   5.964
12154SOL    HW238470   1.624  10.497   6.000
12155SOL     OW38471   3.204   4.596   7.935
12155SOL    HW138472   3.154   4.677   7.933
12155SOL    HW238473   3.238   4.591   8.024
12156SOL     OW38474   4.613   8.701   7.643
12156SOL    HW138475   4.588   8.627   7.587
12156SOL    HW238476   4.662   8.661   7.714
12157SOL     OW38477  11.018   1.500  10.364
12157SOL    HW138478  10.964   1.489  10.442
12157SOL    HW238479  10.958   1.532  10.297
12158SOL     OW38480   7.590   6.783   6.281
12158SOL    HW138481   7.603   6.689   6.267
12158SOL    HW238482   7.634   6.801   6.364
12159SOL     OW38483   4.189  10.479   6.361
12159SOL    HW138484   4.282  10.483   6.384
12159SOL    HW238485   4.146  10.443   6.438
12160SOL     OW38486   6.829   5.056   6.816
12160SOL    HW138487   6.845   5.117   6.888
12160SOL    HW238488   6.763   5.099   6.762
12161SOL     OW38489  10.875   4.449   5.422
12161SOL    HW138490  10.843   4.408   5.341
12161SOL    HW238491  10.970   4.439   5.418
12162SOL     OW38492   7.819   8.405   3.706
12162SOL    HW138493   7.816   8.310   3.689
12162SOL    HW238494   7.783   8.444   3.626
12163SOL     OW38495   3.539   0.146   1.635
12163SOL    HW138496   3.563   0.223   1.686
12163SOL    HW238497   3.612   0.134   1.573
12164SOL     OW38498   2.972   0.851   6.834
12164SOL    HW138499   2.897   0.792   6.835
12164SOL    HW238500   3.032   0.812   6.770
12165SOL     OW38501   4.983   8.396   2.354
12165SOL    HW138502   5.032   8.367   2.276
12165SOL    HW238503   5.016   8.484   2.372
12166SOL     OW38504  11.025   9.397   9.437
12166SOL    HW138505  11.002   9.487   9.413
12166SOL    HW238506  11.094   9.406   9.502
12167SOL     OW38507   3.179   9.964   9.920
12167SOL    HW138508   3.130   9.939   9.998
12167SOL    HW238509   3.261   9.914   9.926
12168SOL     OW38510   5.056   6.184   8.904
12168SOL    HW138511   5.036   6.166   8.996
12168SOL    HW238512   5.148   6.210   8.904
12169SOL     OW38513   0.843   5.259  10.443
12169SOL    HW138514   0.862   5.190  10.507
12169SOL    HW238515   0.790   5.215  10.376
12170SOL     OW38516   6.810   1.576   7.957
12170SOL    HW138517   6.897   1.574   7.916
12170SOL    HW238518   6.818   1.517   8.032
12171SOL     OW38519   2.777   0.193   2.859
12171SOL    HW138520   2.763   0.287   2.852
12171SOL    HW238521   2.729   0.167   2.937
12172SOL     OW38522   9.802   5.709  11.062
12172SOL    HW138523   9.778   5.801  11.060
12172SOL    HW238524   9.847   5.694  10.978
12173SOL     OW38525   2.142   6.139   5.821
12173SOL    HW138526   2.047   6.147   5.831
12173SOL    HW238527   2.154   6.069   5.757
12174SOL     OW38528   4.003   7.450  10.271
12174SOL    HW138529   4.051   7.533  10.265
12174SOL    HW238530   3.911   7.475  10.272
12175SOL     OW38531   0.279   4.852   7.642
12175SOL    HW138532   0.344   4.801   7.593
12175SOL    HW238533   0.315   4.940   7.644
12176SOL     OW38534   7.794   4.851   7.770
12176SOL    HW138535   7.707   4.818   7.793
12176SOL    HW238536   7.807   4.823   7.679
12177SOL     OW38537   4.707   8.218   2.629
12177SOL    HW138538   4.619   8.249   2.649
12177SOL    HW238539   4.710   8.130   2.666
12178SOL     OW38540   7.832   7.144  10.143
12178SOL    HW138541   7.820   7.187  10.227
12178SOL    HW238542   7.844   7.051  10.164
12179SOL     OW38543   5.629   6.233  10.835
12179SOL    HW138544   5.606   6.246  10.743
12179SOL    HW238545   5.548   6.250  10.882
12180SOL     OW38546   9.643  10.160   6.494
12180SOL    HW138547   9.652  10.255   6.498
12180SOL    HW238548   9.628  10.141   6.401
12181SOL     OW38549   7.933   5.458   6.516
12181SOL    HW138550   7.939   5.547   6.482
12181SOL    HW238551   7.840   5.445   6.536
12182SOL     OW38552   0.528  10.634   8.602
12182SOL    HW138553   0.485  10.719   8.602
12182SOL    HW238554   0.555  10.621   8.511
12183SOL     OW38555   1.999  10.095   8.342
12183SOL    HW138556   1.998  10.065   8.433
12183SOL    HW238557   1.956  10.024   8.293
12184SOL     OW38558   1.213   5.048   2.037
12184SOL    HW138559   1.218   5.134   2.077
12184SOL    HW238560   1.276   4.995   2.086
12185SOL     OW38561   6.659   7.521   9.279
12185SOL    HW138562   6.625   7.466   9.208
12185SOL    HW238563   6.752   7.499   9.284
12186SOL     OW38564   1.330   0.286   7.926
12186SOL    HW138565   1.290   0.352   7.981
12186SOL    HW238566   1.285   0.205   7.948
12187SOL     OW38567  10.185   8.901   0.234
12187SOL    HW138568  10.192   8.812   0.198
12187SOL    HW238569  10.143   8.889   0.319
12188SOL     OW38570   6.740   1.216   1.527
12188SOL    HW138571   6.744   1.237   1.433
12188SOL    HW238572   6.694   1.289   1.566
12189SOL     OW38573   0.744   9.207   8.251
12189SOL    HW138574   0.788   9.291   8.241
12189SOL    HW238575   0.752   9.166   8.165
12190SOL     OW38576  10.088   4.356   9.391
12190SOL    HW138577  10.027   4.376   9.462
12190SOL    HW238578  10.033   4.348   9.313
12191SOL     OW38579   0.074   6.562   8.592
12191SOL    HW138580  -0.015   6.561   8.557
12191SOL    HW238581   0.086   6.474   8.629
12192SOL     OW38582   3.318   8.808   0.923
12192SOL    HW138583   3.339   8.812   1.016
12192SOL    HW238584   3.252   8.739   0.916
12193SOL     OW38585   2.395   6.793   5.164
12193SOL    HW138586   2.413   6.748   5.246
12193SOL    HW238587   2.478   6.834   5.140
12194SOL     OW38588   4.754   9.492   2.374
12194SOL    HW138589   4.805   9.571   2.389
12194SOL    HW238590   4.767   9.439   2.453
12195SOL     OW38591   4.633   3.246   4.187
12195SOL    HW138592   4.568   3.186   4.150
12195SOL    HW238593   4.582   3.322   4.215
12196SOL     OW38594   1.308   7.070   3.958
12196SOL    HW138595   1.396   7.091   3.989
12196SOL    HW238596   1.316   6.980   3.924
12197SOL     OW38597   1.133   2.889   4.386
12197SOL    HW138598   1.206   2.907   4.326
12197SOL    HW238599   1.077   2.966   4.380
12198SOL     OW38600   3.236   0.527   9.499
12198SOL    HW138601   3.285   0.608   9.489
12198SOL    HW238602   3.205   0.507   9.410
12199SOL     OW38603   2.990   4.047   6.824
12199SOL    HW138604   3.053   4.111   6.857
12199SOL    HW238605   2.931   4.030   6.897
12200SOL     OW38606   7.978   6.338   8.790
12200SOL    HW138607   7.965   6.367   8.880
12200SOL    HW238608   8.040   6.265   8.797
12201SOL     OW38609   0.079  10.118   2.227
12201SOL    HW138610   0.073  10.169   2.146
12201SOL    HW238611   0.071  10.183   2.297
12202SOL     OW38612   8.411   3.019   8.155
12202SOL    HW138613   8.445   3.010   8.066
12202SOL    HW238614   8.489   3.012   8.211
12203SOL     OW38615   2.076   2.265   1.242
12203SOL    HW138616   2.092   2.277   1.148
12203SOL    HW238617   2.127   2.187   1.265
12204SOL     OW38618   5.437   5.347   1.852
12204SOL    HW138619   5.409   5.313   1.937
12204SOL    HW238620   5.432   5.442   1.861
12205SOL     OW38621   7.628   5.070   7.660
12205SOL    HW138622   7.574   5.006   7.612
12205SOL    HW238623   7.716   5.032   7.659
12206SOL     OW38624   0.603   7.910  10.150
12206SOL    HW138625   0.571   8.000  10.154
12206SOL    HW238626   0.608   7.882  10.241
12207SOL     OW38627   2.025   4.739   8.728
12207SOL    HW138628   2.101   4.779   8.769
12207SOL    HW238629   1.950   4.786   8.765
12208SOL     OW38630   1.067   7.980   7.266
12208SOL    HW138631   1.036   7.901   7.310
12208SOL    HW238632   1.036   7.971   7.176
12209SOL     OW38633   1.792   7.360   7.170
12209SOL    HW138634   1.862   7.425   7.162
12209SOL    HW238635   1.711   7.410   7.157
12210SOL     OW38636   1.715   0.345   4.018
12210SOL    HW138637   1.756   0.431   4.009
12210SOL    HW238638   1.668   0.332   3.935
12211SOL     OW38639   2.956   1.282   5.348
12211SOL    HW138640   2.950   1.310   5.439
12211SOL    HW238641   2.891   1.212   5.340
12212SOL     OW38642   3.598   2.198  10.161
12212SOL    HW138643   3.591   2.148  10.079
12212SOL    HW238644   3.542   2.151  10.222
12213SOL     OW38645   4.309   1.097  10.370
12213SOL    HW138646   4.266   1.174  10.333
12213SOL    HW238647   4.393   1.093  10.324
12214SOL     OW38648   9.981   6.551   5.670
12214SOL    HW138649   9.946   6.462   5.662
12214SOL    HW238650   9.940   6.586   5.748
12215SOL     OW38651   9.368   6.763   6.517
12215SOL    HW138652   9.384   6.856   6.528
12215SOL    HW238653   9.331   6.735   6.600
12216SOL     OW38654   1.301   5.394   1.889
12216SOL    HW138655   1.280   5.366   1.978
12216SOL    HW238656   1.345   5.478   1.899
12217SOL     OW38657   3.049   5.531   8.386
12217SOL    HW138658   3.093   5.557   8.305
12217SOL    HW238659   2.971   5.586   8.390
12218SOL     OW38660   4.626   5.808   6.498
12218SOL    HW138661   4.583   5.731   6.460
12218SOL    HW238662   4.653   5.779   6.585
12219SOL     OW38663   5.378   5.571   2.490
12219SOL    HW138664   5.473   5.559   2.492
12219SOL    HW238665   5.358   5.620   2.569
12220SOL     OW38666   8.850   5.427   8.449
12220SOL    HW138667   8.917   5.395   8.509
12220SOL    HW238668   8.875   5.517   8.431
12221SOL     OW38669   7.997   1.749   8.813
12221SOL    HW138670   8.076   1.694   8.808
12221SOL    HW238671   7.939   1.714   8.745
12222SOL     OW38672   0.369   5.675   7.536
12222SOL    HW138673   0.389   5.635   7.451
12222SOL    HW238674   0.423   5.754   7.539
12223SOL     OW38675   3.956   1.287   9.216
12223SOL    HW138676   3.964   1.209   9.271
12223SOL    HW238677   4.002   1.263   9.135
12224SOL     OW38678   1.024   8.813   5.233
12224SOL    HW138679   0.963   8.754   5.188
12224SOL    HW238680   1.023   8.783   5.324
12225SOL     OW38681   0.935   9.341   9.656
12225SOL    HW138682   0.846   9.365   9.680
12225SOL    HW238683   0.987   9.361   9.733
12226SOL     OW38684   9.720   1.305  10.649
12226SOL    HW138685   9.685   1.236  10.592
12226SOL    HW238686   9.697   1.277  10.737
12227SOL     OW38687   0.725   9.862  10.974
12227SOL    HW138688   0.746   9.955  10.970
12227SOL    HW238689   0.742   9.830  10.885
12228SOL     OW38690   4.604   2.230   7.131
12228SOL    HW138691   4.526   2.277   7.161
12228SOL    HW238692   4.676   2.266   7.183
12229SOL     OW38693   2.404   4.610   6.764
12229SOL    HW138694   2.406   4.682   6.827
12229SOL    HW238695   2.496   4.584   6.754
12230SOL     OW38696   0.407   2.493   9.438
12230SOL    HW138697   0.365   2.466   9.519
12230SOL    HW238698   0.369   2.578   9.418
12231SOL     OW38699   7.621  10.177   2.230
12231SOL    HW138700   7.714  10.163   2.209
12231SOL    HW238701   7.579  10.094   2.207
12232SOL     OW38702   2.762   8.328   1.787
12232SOL    HW138703   2.806   8.261   1.840
12232SOL    HW238704   2.833   8.383   1.755
12233SOL     OW38705   3.049   0.679   7.533
12233SOL    HW138706   3.116   0.671   7.601
12233SOL    HW238707   3.011   0.766   7.545
12234SOL     OW38708   9.275   8.733   3.291
12234SOL    HW138709   9.303   8.677   3.363
12234SOL    HW238710   9.197   8.689   3.256
12235SOL     OW38711   1.483   6.670   4.121
12235SOL    HW138712   1.564   6.620   4.110
12235SOL    HW238713   1.454   6.688   4.031
12236SOL     OW38714   7.503   6.469  10.568
12236SOL    HW138715   7.497   6.373  10.574
12236SOL    HW238716   7.479   6.489  10.477
12237SOL     OW38717   8.382   5.963   3.696
12237SOL    HW138718   8.362   5.933   3.785
12237SOL    HW238719   8.314   6.028   3.676
12238SOL     OW38720   3.744   6.838   6.255
12238SOL    HW138721   3.809   6.875   6.194
12238SOL    HW238722   3.796   6.794   6.322
12239SOL     OW38723   2.607   9.024   0.838
12239SOL    HW138724   2.636   9.010   0.748
12239SOL    HW238725   2.672   9.084   0.875
12240SOL     OW38726   6.311   1.893   8.183
12240SOL    HW138727   6.235   1.835   8.183
12240SOL    HW238728   6.281   1.973   8.140
12241SOL     OW38729   0.235   9.298   0.796
12241SOL    HW138730   0.283   9.241   0.736
12241SOL    HW238731   0.149   9.309   0.755
12242SOL     OW38732   1.299  10.725  10.130
12242SOL    HW138733   1.291  10.736  10.224
12242SOL    HW238734   1.381  10.769  10.107
12243SOL     OW38735   4.198   7.253   9.243
12243SOL    HW138736   4.184   7.176   9.187
12243SOL    HW238737   4.123   7.309   9.225
12244SOL     OW38738   4.596   6.543   8.358
12244SOL    HW138739   4.523   6.485   8.379
12244SOL    HW238740   4.601   6.541   8.262
12245SOL     OW38741   5.011   5.568  10.291
12245SOL    HW138742   4.936   5.590  10.236
12245SOL    HW238743   5.019   5.473  10.284
12246SOL     OW38744   8.849   3.153   2.609
12246SOL    HW138745   8.766   3.114   2.637
12246SOL    HW238746   8.908   3.078   2.600
12247SOL     OW38747   3.557   8.253   8.640
12247SOL    HW138748   3.557   8.282   8.731
12247SOL    HW238749   3.538   8.159   8.645
12248SOL     OW38750   0.641   1.514   2.811
12248SOL    HW138751   0.726   1.555   2.826
12248SOL    HW238752   0.633   1.449   2.881
12249SOL     OW38753   3.063   5.776   0.798
12249SOL    HW138754   3.142   5.786   0.744
12249SOL    HW238755   3.000   5.837   0.760
12250SOL     OW38756   0.701   6.474   7.757
12250SOL    HW138757   0.744   6.542   7.705
12250SOL    HW238758   0.771   6.438   7.812
12251SOL     OW38759   2.566   1.808   9.792
12251SOL    HW138760   2.604   1.857   9.864
12251SOL    HW238761   2.491   1.763   9.830
12252SOL     OW38762   0.582   2.736  10.797
12252SOL    HW138763   0.494   2.772  10.784
12252SOL    HW238764   0.629   2.758  10.716
12253SOL     OW38765  10.569   8.493   0.531
12253SOL    HW138766  10.498   8.456   0.584
12253SOL    HW238767  10.636   8.424   0.529
12254SOL     OW38768  10.815   6.021   1.109
12254SOL    HW138769  10.890   6.075   1.083
12254SOL    HW238770  10.752   6.083   1.146
12255SOL     OW38771   4.426   7.643   8.874
12255SOL    HW138772   4.425   7.693   8.955
12255SOL    HW238773   4.376   7.696   8.812
12256SOL     OW38774   3.368   8.557   8.239
12256SOL    HW138775   3.318   8.551   8.320
12256SOL    HW238776   3.365   8.468   8.203
12257SOL     OW38777   3.103  10.368   8.415
12257SOL    HW138778   3.171  10.413   8.465
12257SOL    HW238779   3.129  10.379   8.323
12258SOL     OW38780   3.003   8.970   1.792
12258SOL    HW138781   2.992   8.971   1.697
12258SOL    HW238782   2.994   9.061   1.818
12259SOL     OW38783   9.762   1.299   3.182
12259SOL    HW138784   9.789   1.336   3.098
12259SOL    HW238785   9.779   1.368   3.246
12260SOL     OW38786  10.818  10.400   4.830
12260SOL    HW138787  10.855  10.371   4.747
12260SOL    HW238788  10.893  10.403   4.890
12261SOL     OW38789   1.952   9.834   8.276
12261SOL    HW138790   1.979   9.764   8.216
12261SOL    HW238791   1.908   9.788   8.347
12262SOL     OW38792  10.312   3.486   9.025
12262SOL    HW138793  10.260   3.506   9.103
12262SOL    HW238794  10.352   3.569   9.001
12263SOL     OW38795   4.354   7.636   9.533
12263SOL    HW138796   4.407   7.643   9.454
12263SOL    HW238797   4.399   7.690   9.597
12264SOL     OW38798   2.045   6.427   8.520
12264SOL    HW138799   2.060   6.364   8.590
12264SOL    HW238800   2.130   6.436   8.477
12265SOL     OW38801   8.875   9.363   1.438
12265SOL    HW138802   8.884   9.303   1.363
12265SOL    HW238803   8.919   9.317   1.510
12266SOL     OW38804   5.629   9.904   8.004
12266SOL    HW138805   5.645   9.902   7.909
12266SOL    HW238806   5.561   9.970   8.015
12267SOL     OW38807   3.761   2.925   1.335
12267SOL    HW138808   3.825   2.863   1.370
12267SOL    HW238809   3.679   2.875   1.331
12268SOL     OW38810   0.489   7.626   8.723
12268SOL    HW138811   0.440   7.587   8.650
12268SOL    HW238812   0.580   7.602   8.706
12269SOL     OW38813   6.192  10.168   1.172
12269SOL    HW138814   6.105  10.177   1.134
12269SOL    HW238815   6.246  10.228   1.121
12270SOL     OW38816   5.699   4.046   5.214
12270SOL    HW138817   5.604   4.050   5.223
12270SOL    HW238818   5.729   4.001   5.293
12271SOL     OW38819   5.473   3.652   8.147
12271SOL    HW138820   5.380   3.669   8.135
12271SOL    HW238821   5.515   3.737   8.137
12272SOL     OW38822   9.749   6.498  10.809
12272SOL    HW138823   9.719   6.588  10.803
12272SOL    HW238824   9.771   6.485  10.901
12273SOL     OW38825   1.626   2.565   1.231
12273SOL    HW138826   1.699   2.526   1.279
12273SOL    HW238827   1.604   2.500   1.164
12274SOL     OW38828   4.564   7.632   9.313
12274SOL    HW138829   4.512   7.555   9.287
12274SOL    HW238830   4.655   7.604   9.301
12275SOL     OW38831   0.090   6.537   0.921
12275SOL    HW138832   0.170   6.510   0.966
12275SOL    HW238833   0.042   6.455   0.905
12276SOL     OW38834  10.375   6.145   9.824
12276SOL    HW138835  10.407   6.228   9.789
12276SOL    HW238836  10.444   6.116   9.884
12277SOL     OW38837   9.675   3.861   8.764
12277SOL    HW138838   9.642   3.805   8.693
12277SOL    HW238839   9.735   3.921   8.720
12278SOL     OW38840   5.158   5.153   1.962
12278SOL    HW138841   5.134   5.195   1.879
12278SOL    HW238842   5.124   5.064   1.954
12279SOL     OW38843   5.496   0.317   5.049
12279SOL    HW138844   5.557   0.258   5.094
12279SOL    HW238845   5.413   0.270   5.050
12280SOL     OW38846   3.312   8.451   0.045
12280SOL    HW138847   3.338   8.479   0.133
12280SOL    HW238848   3.391   8.463  -0.008
12281SOL     OW38849   4.800   5.558   5.917
12281SOL    HW138850   4.762   5.515   5.840
12281SOL    HW238851   4.782   5.651   5.904
12282SOL     OW38852   7.322   8.378  10.298
12282SOL    HW138853   7.380   8.447  10.265
12282SOL    HW238854   7.349   8.299  10.250
12283SOL     OW38855   4.655   5.580   9.288
12283SOL    HW138856   4.651   5.673   9.265
12283SOL    HW238857   4.748   5.562   9.302
12284SOL     OW38858   4.159   3.298   8.755
12284SOL    HW138859   4.075   3.269   8.719
12284SOL    HW238860   4.143   3.307   8.849
12285SOL     OW38861   8.571   7.317  10.440
12285SOL    HW138862   8.624   7.366  10.377
12285SOL    HW238863   8.504   7.275  10.386
12286SOL     OW38864   1.652   3.260   2.536
12286SOL    HW138865   1.733   3.300   2.569
12286SOL    HW238866   1.583   3.323   2.558
12287SOL     OW38867   5.574   9.121   6.371
12287SOL    HW138868   5.601   9.212   6.382
12287SOL    HW238869   5.656   9.073   6.360
12288SOL     OW38870   9.543   4.578   4.391
12288SOL    HW138871   9.590   4.617   4.317
12288SOL    HW238872   9.525   4.651   4.450
12289SOL     OW38873   9.709   3.368  10.818
12289SOL    HW138874   9.705   3.319  10.900
12289SOL    HW238875   9.710   3.460  10.845
12290SOL     OW38876   4.582   0.940   9.469
12290SOL    HW138877   4.558   0.916   9.379
12290SOL    HW238878   4.602   0.856   9.511
12291SOL     OW38879   3.697   2.133   2.301
12291SOL    HW138880   3.693   2.045   2.338
12291SOL    HW238881   3.791   2.152   2.296
12292SOL     OW38882  10.318  10.226   0.964
12292SOL    HW138883  10.412  10.214   0.948
12292SOL    HW238884  10.292  10.295   0.903
12293SOL     OW38885   5.165   6.148   9.208
12293SOL    HW138886   5.162   6.215   9.276
12293SOL    HW238887   5.083   6.100   9.218
12294SOL     OW38888   6.216   9.056   3.532
12294SOL    HW138889   6.200   9.052   3.437
12294SOL    HW238890   6.187   9.143   3.557
12295SOL     OW38891   1.353   9.911   1.343
12295SOL    HW138892   1.299   9.836   1.369
12295SOL    HW238893   1.328   9.928   1.252
12296SOL     OW38894   6.170   8.354   0.396
12296SOL    HW138895   6.204   8.390   0.314
12296SOL    HW238896   6.176   8.259   0.385
12297SOL     OW38897   3.421   2.723   0.560
12297SOL    HW138898   3.443   2.779   0.485
12297SOL    HW238899   3.460   2.638   0.538
12298SOL     OW38900   0.546   7.683   9.007
12298SOL    HW138901   0.559   7.777   9.009
12298SOL    HW238902   0.531   7.663   8.914
12299SOL     OW38903   4.850   3.407   7.571
12299SOL    HW138904   4.923   3.427   7.630
12299SOL    HW238905   4.780   3.467   7.597
12300SOL     OW38906   7.457   3.428   9.804
12300SOL    HW138907   7.381   3.445   9.748
12300SOL    HW238908   7.529   3.473   9.760
12301SOL     OW38909   0.245   3.975   1.004
12301SOL    HW138910   0.170   3.976   0.944
12301SOL    HW238911   0.217   4.028   1.079
12302SOL     OW38912   1.189   2.190   8.157
12302SOL    HW138913   1.253   2.182   8.228
12302SOL    HW238914   1.116   2.238   8.196
12303SOL     OW38915   4.310   4.398   4.880
12303SOL    HW138916   4.344   4.309   4.890
12303SOL    HW238917   4.313   4.435   4.968
12304SOL     OW38918   3.683   6.208   5.482
12304SOL    HW138919   3.693   6.233   5.574
12304SOL    HW238920   3.737   6.270   5.434
12305SOL     OW38921   8.267   7.083   5.527
12305SOL    HW138922   8.255   6.991   5.503
12305SOL    HW238923   8.198   7.129   5.479
12306SOL     OW38924   7.863   7.257   9.571
12306SOL    HW138925   7.810   7.195   9.521
12306SOL    HW238926   7.923   7.202   9.621
12307SOL     OW38927   3.254   4.477  10.324
12307SOL    HW138928   3.227   4.477  10.415
12307SOL    HW238929   3.175   4.502  10.275
12308SOL     OW38930   8.217   6.001   2.766
12308SOL    HW138931   8.242   6.092   2.752
12308SOL    HW238932   8.252   5.979   2.852
12309SOL     OW38933   9.886  10.771   0.341
12309SOL    HW138934   9.875  10.854   0.294
12309SOL    HW238935   9.824  10.711   0.299
12310SOL     OW38936   2.784   4.650   8.139
12310SOL    HW138937   2.758   4.636   8.230
12310SOL    HW238938   2.781   4.562   8.099
12311SOL     OW38939   3.683   1.676   8.491
12311SOL    HW138940   3.732   1.638   8.564
12311SOL    HW238941   3.681   1.769   8.510
12312SOL     OW38942   7.019   6.127   8.019
12312SOL    HW138943   6.978   6.177   8.089
12312SOL    HW238944   7.023   6.188   7.945
12313SOL     OW38945  10.769   9.272   5.513
12313SOL    HW138946  10.780   9.321   5.431
12313SOL    HW238947  10.828   9.314   5.575
12314SOL     OW38948   4.573   4.222   7.649
12314SOL    HW138949   4.554   4.280   7.575
12314SOL    HW238950   4.498   4.231   7.707
12315SOL     OW38951   5.079   7.894   4.629
12315SOL    HW138952   5.052   7.969   4.682
12315SOL    HW238953   5.007   7.881   4.567
12316SOL     OW38954   5.690   9.416   0.429
12316SOL    HW138955   5.752   9.343   0.417
12316SOL    HW238956   5.633   9.387   0.500
12317SOL     OW38957   9.198  11.006   5.148
12317SOL    HW138958   9.140  11.033   5.219
12317SOL    HW238959   9.195  10.910   5.150
12318SOL     OW38960   6.619   2.227   9.014
12318SOL    HW138961   6.552   2.293   9.031
12318SOL    HW238962   6.574   2.160   8.962
12319SOL     OW38963   1.512   1.487   0.081
12319SOL    HW138964   1.513   1.529   0.167
12319SOL    HW238965   1.450   1.414   0.091
12320SOL     OW38966   7.378   9.306   8.753
12320SOL    HW138967   7.394   9.212   8.763
12320SOL    HW238968   7.315   9.311   8.681
12321SOL     OW38969   4.697   7.755   6.930
12321SOL    HW138970   4.751   7.732   7.006
12321SOL    HW238971   4.645   7.829   6.959
12322SOL     OW38972   5.536   8.066   2.259
12322SOL    HW138973   5.445   8.044   2.279
12322SOL    HW238974   5.552   8.147   2.306
12323SOL     OW38975  10.226   0.483  11.075
12323SOL    HW138976  10.132   0.469  11.083
12323SOL    HW238977  10.264   0.395  11.084
12324SOL     OW38978   2.134   3.359  10.292
12324SOL    HW138979   2.095   3.312  10.218
12324SOL    HW238980   2.132   3.295  10.364
12325SOL     OW38981   0.780   4.354   3.964
12325SOL    HW138982   0.688   4.358   3.988
12325SOL    HW238983   0.825   4.332   4.045
12326SOL     OW38984   3.559   4.507  10.066
12326SOL    HW138985   3.653   4.496  10.052
12326SOL    HW238986   3.542   4.467  10.151
12327SOL     OW38987   4.596   4.812   1.125
12327SOL    HW138988   4.510   4.800   1.165
12327SOL    HW238989   4.633   4.888   1.169
12328SOL     OW38990   9.486   1.513   9.543
12328SOL    HW138991   9.468   1.544   9.454
12328SOL    HW238992   9.427   1.439   9.555
12329SOL     OW38993   0.724  10.290   6.041
12329SOL    HW138994   0.815  10.290   6.012
12329SOL    HW238995   0.695  10.380   6.029
12330SOL     OW38996   0.475   4.849   2.567
12330SOL    HW138997   0.551   4.817   2.615
12330SOL    HW238998   0.403   4.846   2.630
12331SOL     OW38999   0.450   4.363  10.740
12331SOL    HW139000   0.403   4.440  10.771
12331SOL    HW239001   0.465   4.310  10.818
12332SOL     OW39002   0.641   3.538   9.822
12332SOL    HW139003   0.557   3.554   9.778
12332SOL    HW239004   0.706   3.547   9.752
12333SOL     OW39005   3.173   4.583   8.769
12333SOL    HW139006   3.130   4.512   8.817
12333SOL    HW239007   3.115   4.600   8.695
12334SOL     OW39008   5.673   8.934   2.370
12334SOL    HW139009   5.757   8.889   2.360
12334SOL    HW239010   5.609   8.873   2.332
12335SOL     OW39011  10.520   8.465   7.070
12335SOL    HW139012  10.477   8.416   7.140
12335SOL    HW239013  10.611   8.474   7.099
12336SOL     OW39014   1.669   6.649   9.100
12336SOL    HW139015   1.712   6.734   9.108
12336SOL    HW239016   1.622   6.637   9.182
12337SOL     OW39017  10.751  10.601   0.917
12337SOL    HW139018  10.663  10.615   0.882
12337SOL    HW239019  10.737  10.569   1.006
12338SOL     OW39020   2.720   1.975   0.116
12338SOL    HW139021   2.801   1.940   0.079
12338SOL    HW239022   2.696   1.911   0.184
12339SOL     OW39023   4.546  10.186   6.613
12339SOL    HW139024   4.592  10.115   6.568
12339SOL    HW239025   4.613  10.227   6.667
12340SOL     OW39026   4.089   6.530  10.672
12340SOL    HW139027   4.060   6.449  10.630
12340SOL    HW239028   4.026   6.595  10.643
12341SOL     OW39029   3.559   7.295   0.829
12341SOL    HW139030   3.519   7.379   0.849
12341SOL    HW239031   3.600   7.268   0.911
12342SOL     OW39032   6.786   0.659   5.022
12342SOL    HW139033   6.835   0.666   5.104
12342SOL    HW239034   6.695   0.648   5.048
12343SOL     OW39035   1.226  10.207   1.978
12343SOL    HW139036   1.316  10.208   1.944
12343SOL    HW239037   1.236  10.217   2.072
12344SOL     OW39038   3.642   3.422   9.353
12344SOL    HW139039   3.612   3.373   9.429
12344SOL    HW239040   3.713   3.368   9.317
12345SOL     OW39041   6.402   2.967   2.001
12345SOL    HW139042   6.437   3.042   2.048
12345SOL    HW239043   6.432   2.979   1.911
12346SOL     OW39044   3.897   6.693  10.573
12346SOL    HW139045   3.840   6.652  10.507
12346SOL    HW239046   3.948   6.757  10.523
12347SOL     OW39047  10.120   2.445   3.981
12347SOL    HW139048  10.095   2.353   3.978
12347SOL    HW239049  10.212   2.443   4.007
12348SOL     OW39050   2.790   7.718   7.645
12348SOL    HW139051   2.818   7.805   7.619
12348SOL    HW239052   2.721   7.733   7.709
12349SOL     OW39053   9.360   4.258   5.350
12349SOL    HW139054   9.378   4.174   5.393
12349SOL    HW239055   9.418   4.321   5.393
12350SOL     OW39056   2.080   7.753   0.846
12350SOL    HW139057   2.153   7.696   0.871
12350SOL    HW239058   2.042   7.782   0.929
12351SOL     OW39059   1.805   2.297   1.271
12351SOL    HW139060   1.899   2.299   1.287
12351SOL    HW239061   1.773   2.228   1.329
12352SOL     OW39062   1.467   5.436   0.356
12352SOL    HW139063   1.444   5.346   0.379
12352SOL    HW239064   1.389   5.470   0.313
12353SOL     OW39065   0.770   1.517  10.041
12353SOL    HW139066   0.726   1.470   9.970
12353SOL    HW239067   0.827   1.451  10.081
12354SOL     OW39068   8.165   1.831   6.327
12354SOL    HW139069   8.157   1.735   6.328
12354SOL    HW239070   8.260   1.846   6.326
12355SOL     OW39071   5.887   1.166   9.658
12355SOL    HW139072   5.982   1.156   9.663
12355SOL    HW239073   5.855   1.077   9.643
12356SOL     OW39074   7.151   9.953   4.779
12356SOL    HW139075   7.110   9.895   4.715
12356SOL    HW239076   7.146  10.040   4.739
12357SOL     OW39077   0.840   9.249   9.341
12357SOL    HW139078   0.876   9.272   9.426
12357SOL    HW239079   0.749   9.227   9.359
12358SOL     OW39080   3.473   9.454   1.390
12358SOL    HW139081   3.512   9.489   1.310
12358SOL    HW239082   3.393   9.505   1.402
12359SOL     OW39083   1.935   7.941   7.594
12359SOL    HW139084   1.939   8.026   7.550
12359SOL    HW239085   2.011   7.940   7.652
12360SOL     OW39086   2.646   8.373   0.153
12360SOL    HW139087   2.595   8.318   0.093
12360SOL    HW239088   2.735   8.371   0.118
12361SOL     OW39089   7.757   3.338   9.268
12361SOL    HW139090   7.808   3.276   9.320
12361SOL    HW239091   7.777   3.423   9.306
12362SOL     OW39092   2.564   5.053  10.504
12362SOL    HW139093   2.644   5.001  10.496
12362SOL    HW239094   2.584   5.117  10.572
12363SOL     OW39095   1.296   1.874   3.256
12363SOL    HW139096   1.389   1.884   3.237
12363SOL    HW239097   1.292   1.801   3.318
12364SOL     OW39098   5.546   9.491   2.996
12364SOL    HW139099   5.488   9.450   2.932
12364SOL    HW239100   5.535   9.438   3.075
12365SOL     OW39101   5.110   1.935   9.264
12365SOL    HW139102   5.122   1.876   9.189
12365SOL    HW239103   5.020   1.966   9.256
12366SOL     OW39104   5.187   0.421   7.951
12366SOL    HW139105   5.201   0.512   7.924
12366SOL    HW239106   5.236   0.369   7.887
12367SOL     OW39107   2.133   7.623   9.607
12367SOL    HW139108   2.135   7.539   9.561
12367SOL    HW239109   2.211   7.621   9.663
12368SOL     OW39110   0.348   4.567   8.861
12368SOL    HW139111   0.317   4.485   8.900
12368SOL    HW239112   0.442   4.567   8.877
12369SOL     OW39113   2.135  10.721   5.001
12369SOL    HW139114   2.154  10.683   5.087
12369SOL    HW239115   2.147  10.815   5.013
12370SOL     OW39116   0.279   1.901   1.205
12370SOL    HW139117   0.294   1.995   1.209
12370SOL    HW239118   0.296   1.878   1.113
12371SOL     OW39119   4.163   0.016  10.651
12371SOL    HW139120   4.154  -0.070  10.692
12371SOL    HW239121   4.077   0.056  10.661
12372SOL     OW39122   2.739   7.242   7.347
12372SOL    HW139123   2.676   7.236   7.419
12372SOL    HW239124   2.709   7.177   7.283
12373SOL     OW39125   3.649   4.973   1.144
12373SOL    HW139126   3.639   4.975   1.239
12373SOL    HW239127   3.561   4.991   1.110
12374SOL     OW39128   1.896   3.017   8.385
12374SOL    HW139129   1.928   3.067   8.460
12374SOL    HW239130   1.837   3.077   8.339
12375SOL     OW39131   2.822   1.052   8.745
12375SOL    HW139132   2.875   1.076   8.669
12375SOL    HW239133   2.811   1.133   8.794
12376SOL     OW39134   4.267   3.752   2.068
12376SOL    HW139135   4.331   3.816   2.038
12376SOL    HW239136   4.272   3.681   2.004
12377SOL     OW39137   9.365   4.232   9.892
12377SOL    HW139138   9.364   4.234   9.796
12377SOL    HW239139   9.420   4.157   9.914
12378SOL     OW39140   3.673   0.255   9.530
12378SOL    HW139141   3.757   0.298   9.546
12378SOL    HW239142   3.685   0.209   9.446
12379SOL     OW39143   4.145   7.393   5.806
12379SOL    HW139144   4.185   7.480   5.807
12379SOL    HW239145   4.173   7.353   5.888
12380SOL     OW39146   2.685   4.096   7.883
12380SOL    HW139147   2.747   4.139   7.824
12380SOL    HW239148   2.688   4.148   7.963
12381SOL     OW39149   0.898   1.234   1.916
12381SOL    HW139150   0.929   1.213   2.004
12381SOL    HW239151   0.890   1.329   1.915
12382SOL     OW39152   8.505   8.186   2.222
12382SOL    HW139153   8.430   8.190   2.281
12382SOL    HW239154   8.484   8.246   2.151
12383SOL     OW39155   5.699   5.142   8.232
12383SOL    HW139156   5.734   5.154   8.320
12383SOL    HW239157   5.673   5.050   8.229
12384SOL     OW39158   2.828   4.292   6.793
12384SOL    HW139159   2.899   4.304   6.856
12384SOL    HW239160   2.848   4.208   6.750
12385SOL     OW39161   3.393   1.557   1.035
12385SOL    HW139162   3.347   1.565   0.951
12385SOL    HW239163   3.460   1.625   1.032
12386SOL     OW39164   0.052   4.604   4.339
12386SOL    HW139165   0.113   4.546   4.294
12386SOL    HW239166  -0.018   4.546   4.369
12387SOL     OW39167   2.920   4.491   1.509
12387SOL    HW139168   2.855   4.561   1.504
12387SOL    HW239169   2.884   4.420   1.455
12388SOL     OW39170   2.185   7.638   3.783
12388SOL    HW139171   2.195   7.614   3.690
12388SOL    HW239172   2.268   7.613   3.823
12389SOL     OW39173   3.994   1.624  10.610
12389SOL    HW139174   3.960   1.588  10.692
12389SOL    HW239175   4.008   1.717  10.628
12390SOL     OW39176   6.379   4.852   8.674
12390SOL    HW139177   6.355   4.943   8.689
12390SOL    HW239178   6.423   4.852   8.589
12391SOL     OW39179   5.975  10.779   2.892
12391SOL    HW139180   6.019  10.735   2.819
12391SOL    HW239181   6.029  10.758   2.968
12392SOL     OW39182   2.351   0.750   0.744
12392SOL    HW139183   2.426   0.809   0.744
12392SOL    HW239184   2.344   0.721   0.653
12393SOL     OW39185   8.373   2.127   6.087
12393SOL    HW139186   8.300   2.185   6.065
12393SOL    HW239187   8.419   2.114   6.004
12394SOL     OW39188   9.556   8.151   9.820
12394SOL    HW139189   9.488   8.177   9.758
12394SOL    HW239190   9.591   8.233   9.853
12395SOL     OW39191   3.340   6.571  10.660
12395SOL    HW139192   3.433   6.587  10.642
12395SOL    HW239193   3.340   6.502  10.726
12396SOL     OW39194   4.897   2.769   2.456
12396SOL    HW139195   4.952   2.843   2.481
12396SOL    HW239196   4.862   2.735   2.538
12397SOL     OW39197   5.595   3.656   8.407
12397SOL    HW139198   5.562   3.633   8.320
12397SOL    HW239199   5.574   3.749   8.417
12398SOL     OW39200   8.289  10.052   3.545
12398SOL    HW139201   8.299  10.132   3.494
12398SOL    HW239202   8.375  10.037   3.584
12399SOL     OW39203   4.064  10.808   5.796
12399SOL    HW139204   4.043  10.785   5.705
12399SOL    HW239205   4.144  10.759   5.815
12400SOL     OW39206  10.327   9.596   9.957
12400SOL    HW139207  10.354   9.640   9.876
12400SOL    HW239208  10.385   9.520   9.963
12401SOL     OW39209   7.945   1.110   7.867
12401SOL    HW139210   7.905   1.024   7.884
12401SOL    HW239211   7.957   1.148   7.953
12402SOL     OW39212   5.873   0.983   3.143
12402SOL    HW139213   5.854   0.889   3.154
12402SOL    HW239214   5.939   1.002   3.210
12403SOL     OW39215   1.805   9.283   8.819
12403SOL    HW139216   1.829   9.326   8.901
12403SOL    HW239217   1.717   9.250   8.834
12404SOL     OW39218   2.844   2.147   1.856
12404SOL    HW139219   2.840   2.052   1.870
12404SOL    HW239220   2.888   2.156   1.771
12405SOL     OW39221   6.567   9.768   5.266
12405SOL    HW139222   6.542   9.682   5.230
12405SOL    HW239223   6.524   9.831   5.208
12406SOL     OW39224   1.832   7.716   8.203
12406SOL    HW139225   1.841   7.716   8.298
12406SOL    HW239226   1.921   7.699   8.170
12407SOL     OW39227   7.067   7.016   5.960
12407SOL    HW139228   7.160   6.997   5.943
12407SOL    HW239229   7.020   6.948   5.912
12408SOL     OW39230   0.802   6.277   9.329
12408SOL    HW139231   0.733   6.311   9.386
12408SOL    HW239232   0.860   6.227   9.387
12409SOL     OW39233   8.648   4.498   2.041
12409SOL    HW139234   8.654   4.481   1.947
12409SOL    HW239235   8.627   4.413   2.079
12410SOL     OW39236   0.759   5.591   4.098
12410SOL    HW139237   0.848   5.591   4.062
12410SOL    HW239238   0.754   5.511   4.150
12411SOL     OW39239   1.087   0.608   7.975
12411SOL    HW139240   1.171   0.650   7.992
12411SOL    HW239241   1.030   0.637   8.046
12412SOL     OW39242   3.678  10.840  10.578
12412SOL    HW139243   3.768  10.869  10.593
12412SOL    HW239244   3.685  10.775  10.508
12413SOL     OW39245   4.033   9.487   9.810
12413SOL    HW139246   4.069   9.500   9.722
12413SOL    HW239247   3.980   9.407   9.802
12414SOL     OW39248  10.850   8.348   0.848
12414SOL    HW139249  10.906   8.424   0.834
12414SOL    HW239250  10.908   8.283   0.887
12415SOL     OW39251   3.457   1.674   2.363
12415SOL    HW139252   3.419   1.671   2.451
12415SOL    HW239253   3.455   1.583   2.333
12416SOL     OW39254   5.168   8.132   2.397
12416SOL    HW139255   5.165   8.152   2.303
12416SOL    HW239256   5.082   8.095   2.416
12417SOL     OW39257   4.805   9.568   6.146
12417SOL    HW139258   4.743   9.498   6.167
12417SOL    HW239259   4.836   9.546   6.058
12418SOL     OW39260   3.693  11.002  10.310
12418SOL    HW139261   3.733  10.933  10.257
12418SOL    HW239262   3.665  10.958  10.390
12419SOL     OW39263   2.686   4.369   2.069
12419SOL    HW139264   2.635   4.388   2.147
12419SOL    HW239265   2.672   4.444   2.012
12420SOL     OW39266   1.842   8.503   2.808
12420SOL    HW139267   1.815   8.510   2.716
12420SOL    HW239268   1.761   8.509   2.858
12421SOL     OW39269  10.542   8.353   8.803
12421SOL    HW139270  10.616   8.413   8.807
12421SOL    HW239271  10.490   8.384   8.729
12422SOL     OW39272   9.309   8.821  10.359
12422SOL    HW139273   9.318   8.850  10.268
12422SOL    HW239274   9.310   8.725  10.353
12423SOL     OW39275   2.788   0.809   2.649
12423SOL    HW139276   2.737   0.783   2.726
12423SOL    HW239277   2.796   0.728   2.597
12424SOL     OW39278   9.931   5.148   0.256
12424SOL    HW139279   9.966   5.228   0.295
12424SOL    HW239280   9.997   5.081   0.274
12425SOL     OW39281   8.741   9.261  10.437
12425SOL    HW139282   8.819   9.209  10.417
12425SOL    HW239283   8.682   9.243  10.363
12426SOL     OW39284   5.732   5.803   7.667
12426SOL    HW139285   5.642   5.830   7.681
12426SOL    HW239286   5.784   5.863   7.720
12427SOL     OW39287  10.547   4.423   5.624
12427SOL    HW139288  10.458   4.439   5.655
12427SOL    HW239289  10.538   4.415   5.529
12428SOL     OW39290   0.973   6.611   9.195
12428SOL    HW139291   0.923   6.691   9.179
12428SOL    HW239292   1.045   6.638   9.251
12429SOL     OW39293   7.793   8.248   1.005
12429SOL    HW139294   7.805   8.154   1.018
12429SOL    HW239295   7.699   8.261   1.013
12430SOL     OW39296   2.089  10.036   9.101
12430SOL    HW139297   2.159   9.971   9.094
12430SOL    HW239298   2.055  10.025   9.190
12431SOL     OW39299   2.058   8.005   0.505
12431SOL    HW139300   2.091   8.072   0.565
12431SOL    HW239301   2.120   8.006   0.432
12432SOL     OW39302   1.719  10.059   8.034
12432SOL    HW139303   1.692  10.148   8.015
12432SOL    HW239304   1.814  10.064   8.045
12433SOL     OW39305   2.147   7.356   0.115
12433SOL    HW139306   2.069   7.337   0.063
12433SOL    HW239307   2.140   7.449   0.136
12434SOL     OW39308   5.092   0.712   9.113
12434SOL    HW139309   5.119   0.644   9.050
12434SOL    HW239310   5.165   0.718   9.174
12435SOL     OW39311   4.790   5.875   2.269
12435SOL    HW139312   4.867   5.899   2.321
12435SOL    HW239313   4.825   5.819   2.199
12436SOL     OW39314   3.491   8.076   7.192
12436SOL    HW139315   3.455   8.024   7.120
12436SOL    HW239316   3.433   8.152   7.198
12437SOL     OW39317   4.912   9.083   1.857
12437SOL    HW139318   4.816   9.084   1.861
12437SOL    HW239319   4.932   9.071   1.764
12438SOL     OW39320   5.922   4.455   3.297
12438SOL    HW139321   5.829   4.434   3.294
12438SOL    HW239322   5.952   4.442   3.207
12439SOL     OW39323   3.789   0.607   6.209
12439SOL    HW139324   3.787   0.512   6.224
12439SOL    HW239325   3.701   0.637   6.233
12440SOL     OW39326   1.450  10.912   7.819
12440SOL    HW139327   1.361  10.906   7.783
12440SOL    HW239328   1.488  10.989   7.777
12441SOL     OW39329   7.259   5.341   0.818
12441SOL    HW139330   7.319   5.273   0.850
12441SOL    HW239331   7.173   5.313   0.849
12442SOL     OW39332   5.248   0.788   6.454
12442SOL    HW139333   5.306   0.727   6.500
12442SOL    HW239334   5.206   0.734   6.386
12443SOL     OW39335   4.979   1.266   1.893
12443SOL    HW139336   4.993   1.249   1.986
12443SOL    HW239337   5.044   1.333   1.871
12444SOL     OW39338   4.586   9.195   7.561
12444SOL    HW139339   4.528   9.207   7.636
12444SOL    HW239340   4.557   9.259   7.497
12445SOL     OW39341   0.058   3.575   9.401
12445SOL    HW139342   0.137   3.543   9.444
12445SOL    HW239343  -0.013   3.551   9.460
12446SOL     OW39344   7.074   7.121   9.937
12446SOL    HW139345   7.019   7.194   9.964
12446SOL    HW239346   7.162   7.143   9.968
12447SOL     OW39347   1.835   1.004   1.563
12447SOL    HW139348   1.853   0.912   1.543
12447SOL    HW239349   1.741   1.007   1.579
12448SOL     OW39350   7.663  11.084   4.303
12448SOL    HW139351   7.655  11.179   4.299
12448SOL    HW239352   7.744  11.069   4.352
12449SOL     OW39353   3.813   9.289   9.667
12449SOL    HW139354   3.833   9.376   9.633
12449SOL    HW239355   3.718   9.288   9.676
12450SOL     OW39356   2.965   1.288   6.750
12450SOL    HW139357   2.908   1.215   6.724
12450SOL    HW239358   2.956   1.351   6.679
12451SOL     OW39359   0.016   0.328   1.026
12451SOL    HW139360   0.093   0.277   1.001
12451SOL    HW239361  -0.050   0.262   1.047
12452SOL     OW39362  10.657   1.480   2.978
12452SOL    HW139363  10.644   1.551   2.915
12452SOL    HW239364  10.587   1.491   3.041
12453SOL     OW39365   1.433   6.342   8.035
12453SOL    HW139366   1.517   6.387   8.039
12453SOL    HW239367   1.389   6.380   7.959
12454SOL     OW39368   1.930   2.707   4.155
12454SOL    HW139369   1.925   2.786   4.208
12454SOL    HW239370   1.987   2.648   4.204
12455SOL     OW39371  10.708   3.854   4.302
12455SOL    HW139372  10.689   3.841   4.395
12455SOL    HW239373  10.637   3.909   4.270
12456SOL     OW39374   7.105   0.442   3.374
12456SOL    HW139375   7.141   0.446   3.462
12456SOL    HW239376   7.099   0.348   3.355
12457SOL     OW39377   8.027   4.593   3.267
12457SOL    HW139378   7.963   4.579   3.336
12457SOL    HW239379   8.017   4.685   3.242
12458SOL     OW39380   4.029   7.126   7.310
12458SOL    HW139381   3.955   7.066   7.302
12458SOL    HW239382   3.990   7.213   7.311
12459SOL     OW39383   9.131   5.236   1.209
12459SOL    HW139384   9.171   5.153   1.180
12459SOL    HW239385   9.137   5.293   1.132
12460SOL     OW39386   4.601   5.795   7.690
12460SOL    HW139387   4.573   5.877   7.649
12460SOL    HW239388   4.600   5.731   7.618
12461SOL     OW39389   7.037   0.357   8.950
12461SOL    HW139390   7.095   0.314   9.013
12461SOL    HW239391   7.007   0.286   8.893
12462SOL     OW39392   6.514   5.417   8.429
12462SOL    HW139393   6.446   5.356   8.400
12462SOL    HW239394   6.547   5.456   8.348
12463SOL     OW39395   5.825   8.865   0.549
12463SOL    HW139396   5.902   8.811   0.532
12463SOL    HW239397   5.852   8.954   0.527
12464SOL     OW39398   3.026   2.892   8.624
12464SOL    HW139399   3.055   2.955   8.558
12464SOL    HW239400   2.945   2.856   8.588
12465SOL     OW39401   3.142   9.877   1.182
12465SOL    HW139402   3.119   9.864   1.090
12465SOL    HW239403   3.082   9.820   1.229
12466SOL     OW39404   0.784   6.564   9.644
12466SOL    HW139405   0.717   6.611   9.594
12466SOL    HW239406   0.735   6.506   9.702
12467SOL     OW39407  10.684   2.178   7.024
12467SOL    HW139408  10.719   2.239   7.089
12467SOL    HW239409  10.626   2.120   7.074
12468SOL     OW39410  11.026  10.928   5.880
12468SOL    HW139411  11.099  10.936   5.941
12468SOL    HW239412  10.992  11.017   5.872
12469SOL     OW39413   2.490  10.944   0.946
12469SOL    HW139414   2.523  10.883   0.880
12469SOL    HW239415   2.409  10.979   0.908
12470SOL     OW39416   2.881   2.162   4.799
12470SOL    HW139417   2.929   2.083   4.825
12470SOL    HW239418   2.936   2.235   4.828
12471SOL     OW39419   2.472   7.038   3.583
12471SOL    HW139420   2.556   6.992   3.586
12471SOL    HW239421   2.426   6.998   3.509
12472SOL     OW39422   6.027   7.381   1.827
12472SOL    HW139423   6.061   7.419   1.908
12472SOL    HW239424   5.937   7.414   1.821
12473SOL     OW39425   0.828   9.906   1.316
12473SOL    HW139426   0.882   9.980   1.289
12473SOL    HW239427   0.765   9.895   1.245
12474SOL     OW39428   1.841   2.252   5.765
12474SOL    HW139429   1.804   2.217   5.846
12474SOL    HW239430   1.917   2.196   5.747
12475SOL     OW39431   0.956   3.109   4.994
12475SOL    HW139432   0.880   3.095   5.050
12475SOL    HW239433   0.930   3.074   4.908
12476SOL     OW39434   5.749   8.460   7.249
12476SOL    HW139435   5.771   8.369   7.270
12476SOL    HW239436   5.708   8.494   7.328
12477SOL     OW39437   3.295   3.247   2.348
12477SOL    HW139438   3.339   3.307   2.288
12477SOL    HW239439   3.325   3.274   2.435
12478SOL     OW39440   2.713  10.748   7.656
12478SOL    HW139441   2.673  10.701   7.583
12478SOL    HW239442   2.679  10.704   7.734
12479SOL     OW39443   2.232   2.587   8.640
12479SOL    HW139444   2.246   2.526   8.712
12479SOL    HW239445   2.211   2.531   8.565
12480SOL     OW39446   4.609   3.092   0.192
12480SOL    HW139447   4.595   3.132   0.278
12480SOL    HW239448   4.626   3.165   0.133
12481SOL     OW39449   4.760   5.619   4.978
12481SOL    HW139450   4.822   5.587   5.043
12481SOL    HW239451   4.689   5.658   5.029
12482SOL     OW39452   0.870   0.683   2.232
12482SOL    HW139453   0.877   0.620   2.304
12482SOL    HW239454   0.901   0.635   2.155
12483SOL     OW39455   5.029   2.302  10.176
12483SOL    HW139456   4.983   2.240  10.233
12483SOL    HW239457   5.113   2.317  10.219
12484SOL     OW39458   5.538   6.396   1.937
12484SOL    HW139459   5.548   6.468   1.875
12484SOL    HW239460   5.593   6.420   2.011
12485SOL     OW39461   4.151   1.203   7.593
12485SOL    HW139462   4.243   1.217   7.569
12485SOL    HW239463   4.103   1.214   7.511
12486SOL     OW39464   2.589  10.325   9.293
12486SOL    HW139465   2.499  10.339   9.264
12486SOL    HW239466   2.638  10.308   9.212
12487SOL     OW39467   4.935   6.776   4.201
12487SOL    HW139468   4.885   6.735   4.271
12487SOL    HW239469   4.897   6.740   4.121
12488SOL     OW39470   6.604   9.365   8.566
12488SOL    HW139471   6.576   9.277   8.538
12488SOL    HW239472   6.631   9.353   8.657
12489SOL     OW39473   1.364   3.733   2.818
12489SOL    HW139474   1.361   3.637   2.810
12489SOL    HW239475   1.280   3.762   2.784
12490SOL     OW39476   9.037   6.884   8.376
12490SOL    HW139477   9.097   6.809   8.374
12490SOL    HW239478   9.054   6.926   8.460
12491SOL     OW39479   1.828   9.497   4.658
12491SOL    HW139480   1.790   9.522   4.574
12491SOL    HW239481   1.905   9.553   4.667
12492SOL     OW39482   6.588   2.312   9.347
12492SOL    HW139483   6.639   2.342   9.272
12492SOL    HW239484   6.651   2.307   9.418
12493SOL     OW39485   1.981   9.712   8.736
12493SOL    HW139486   1.899   9.756   8.713
12493SOL    HW239487   1.975   9.699   8.830
12494SOL     OW39488   5.499   0.780   0.144
12494SOL    HW139489   5.560   0.821   0.083
12494SOL    HW239490   5.428   0.843   0.154
12495SOL     OW39491   6.408  10.690   1.124
12495SOL    HW139492   6.445  10.699   1.036
12495SOL    HW239493   6.407  10.779   1.158
12496SOL     OW39494   5.982   5.532   1.641
12496SOL    HW139495   5.926   5.531   1.563
12496SOL    HW239496   5.934   5.480   1.705
12497SOL     OW39497   6.188   9.099   0.165
12497SOL    HW139498   6.191   9.005   0.183
12497SOL    HW239499   6.155   9.105   0.076
12498SOL     OW39500   6.658  10.395   2.496
12498SOL    HW139501   6.642  10.301   2.490
12498SOL    HW239502   6.585  10.435   2.449
12499SOL     OW39503   6.972   9.026   1.355
12499SOL    HW139504   6.878   9.028   1.373
12499SOL    HW239505   6.978   9.024   1.259
12500SOL     OW39506   1.717   3.013  11.085
12500SOL    HW139507   1.672   2.943  11.132
12500SOL    HW239508   1.648   3.058  11.037
12501SOL     OW39509   4.141  10.017   8.854
12501SOL    HW139510   4.153   9.929   8.817
12501SOL    HW239511   4.228  10.057   8.850
12502SOL     OW39512   8.341   9.388   1.506
12502SOL    HW139513   8.286   9.309   1.505
12502SOL    HW239514   8.410   9.368   1.569
12503SOL     OW39515   1.138   5.576   8.744
12503SOL    HW139516   1.083   5.616   8.811
12503SOL    HW239517   1.095   5.493   8.723
12504SOL     OW39518   0.178   6.216  11.028
12504SOL    HW139519   0.249   6.153  11.013
12504SOL    HW239520   0.192   6.285  10.963
12505SOL     OW39521   2.335   8.517   3.127
12505SOL    HW139522   2.244   8.503   3.153
12505SOL    HW239523   2.384   8.450   3.175
12506SOL     OW39524   3.875   8.847   0.601
12506SOL    HW139525   3.921   8.928   0.582
12506SOL    HW239526   3.813   8.869   0.670
12507SOL     OW39527   6.093  10.679   6.890
12507SOL    HW139528   6.136  10.741   6.949
12507SOL    HW239529   6.024  10.730   6.847
12508SOL     OW39530   9.417   9.042   5.631
12508SOL    HW139531   9.489   8.980   5.641
12508SOL    HW239532   9.421   9.068   5.539
12509SOL     OW39533   0.580   2.695   9.996
12509SOL    HW139534   0.508   2.635   9.978
12509SOL    HW239535   0.630   2.652  10.065
12510SOL     OW39536   6.560   5.643   1.179
12510SOL    HW139537   6.534   5.714   1.237
12510SOL    HW239538   6.627   5.681   1.122
12511SOL     OW39539  10.325  10.733   3.379
12511SOL    HW139540  10.319  10.644   3.344
12511SOL    HW239541  10.307  10.790   3.304
12512SOL     OW39542   1.956   0.460   2.243
12512SOL    HW139543   2.048   0.462   2.268
12512SOL    HW239544   1.933   0.551   2.227
12513SOL     OW39545   1.271   5.105   0.472
12513SOL    HW139546   1.352   5.094   0.422
12513SOL    HW239547   1.294   5.165   0.543
12514SOL     OW39548  11.105   8.679   3.693
12514SOL    HW139549  11.054   8.680   3.774
12514SOL    HW239550  11.043   8.705   3.625
12515SOL     OW39551   0.459   0.076  10.311
12515SOL    HW139552   0.484   0.080  10.218
12515SOL    HW239553   0.372   0.035  10.310
12516SOL     OW39554   1.389   3.503   0.702
12516SOL    HW139555   1.406   3.411   0.682
12516SOL    HW239556   1.469   3.548   0.676
12517SOL     OW39557   9.225   8.167  10.966
12517SOL    HW139558   9.130   8.168  10.952
12517SOL    HW239559   9.238   8.221  11.043
12518SOL     OW39560   7.109   8.641   1.561
12518SOL    HW139561   7.024   8.662   1.522
12518SOL    HW239562   7.172   8.690   1.508
12519SOL     OW39563   7.475   8.260   3.587
12519SOL    HW139564   7.421   8.211   3.525
12519SOL    HW239565   7.412   8.309   3.640
12520SOL     OW39566   6.248   0.704  10.757
12520SOL    HW139567   6.255   0.776  10.819
12520SOL    HW239568   6.241   0.746  10.671
12521SOL     OW39569   3.822  10.807   5.308
12521SOL    HW139570   3.747  10.750   5.292
12521SOL    HW239571   3.799  10.890   5.265
12522SOL     OW39572   4.396   9.659  10.701
12522SOL    HW139573   4.393   9.626  10.791
12522SOL    HW239574   4.341   9.737  10.702
12523SOL     OW39575   8.289   8.401   8.318
12523SOL    HW139576   8.285   8.448   8.235
12523SOL    HW239577   8.203   8.359   8.326
12524SOL     OW39578   6.806   9.434   0.886
12524SOL    HW139579   6.725   9.464   0.927
12524SOL    HW239580   6.845   9.374   0.950
12525SOL     OW39581   4.449   3.758   0.137
12525SOL    HW139582   4.468   3.754   0.044
12525SOL    HW239583   4.355   3.775   0.142
12526SOL     OW39584   6.168   6.255   2.515
12526SOL    HW139585   6.174   6.239   2.609
12526SOL    HW239586   6.259   6.251   2.484
12527SOL     OW39587   3.745   9.021   2.731
12527SOL    HW139588   3.821   9.036   2.787
12527SOL    HW239589   3.755   9.083   2.659
12528SOL     OW39590   6.539   6.480   2.964
12528SOL    HW139591   6.510   6.415   3.028
12528SOL    HW239592   6.463   6.535   2.950
12529SOL     OW39593   2.356  10.469   0.028
12529SOL    HW139594   2.437  10.425   0.003
12529SOL    HW239595   2.335  10.433   0.114
12530SOL     OW39596   5.803   3.315  11.104
12530SOL    HW139597   5.877   3.275  11.057
12530SOL    HW239598   5.763   3.374  11.040
12531SOL     OW39599   6.655   1.532   1.381
12531SOL    HW139600   6.639   1.481   1.301
12531SOL    HW239601   6.725   1.592   1.357
12532SOL     OW39602   9.221  11.026   1.303
12532SOL    HW139603   9.197  10.996   1.215
12532SOL    HW239604   9.217  10.947   1.357
12533SOL     OW39605   3.680   4.874   7.339
12533SOL    HW139606   3.677   4.929   7.417
12533SOL    HW239607   3.653   4.787   7.369
12534SOL     OW39608   3.093   1.978   2.705
12534SOL    HW139609   3.131   2.015   2.625
12534SOL    HW239610   3.151   2.007   2.775
12535SOL     OW39611   3.527   3.180   7.273
12535SOL    HW139612   3.558   3.269   7.287
12535SOL    HW239613   3.562   3.130   7.347
12536SOL     OW39614   9.352   8.530   5.226
12536SOL    HW139615   9.434   8.486   5.250
12536SOL    HW239616   9.352   8.528   5.130
12537SOL     OW39617   2.229   9.798   8.757
12537SOL    HW139618   2.138   9.768   8.749
12537SOL    HW239619   2.281   9.726   8.721
12538SOL     OW39620   8.291  10.173   0.353
12538SOL    HW139621   8.281  10.078   0.366
12538SOL    HW239622   8.223  10.212   0.407
12539SOL     OW39623   6.883   1.709   1.414
12539SOL    HW139624   6.944   1.663   1.472
12539SOL    HW239625   6.910   1.800   1.419
12540SOL     OW39626   7.642   6.878   3.115
12540SOL    HW139627   7.591   6.799   3.096
12540SOL    HW239628   7.733   6.847   3.115
12541SOL     OW39629   3.384   8.478   9.033
12541SOL    HW139630   3.427   8.498   8.949
12541SOL    HW239631   3.455   8.447   9.089
12542SOL     OW39632   1.233   5.674   1.375
12542SOL    HW139633   1.140   5.698   1.379
12542SOL    HW239634   1.258   5.691   1.284
12543SOL     OW39635   6.159   3.914   1.991
12543SOL    HW139636   6.222   3.887   2.057
12543SOL    HW239637   6.212   3.935   1.914
12544SOL     OW39638   4.964   1.246   2.270
12544SOL    HW139639   5.042   1.266   2.321
12544SOL    HW239640   4.955   1.151   2.277
12545SOL     OW39641   2.860   3.454  10.540
12545SOL    HW139642   2.908   3.420  10.464
12545SOL    HW239643   2.788   3.503  10.502
12546SOL     OW39644   6.943   7.234   6.848
12546SOL    HW139645   6.950   7.298   6.777
12546SOL    HW239646   6.975   7.280   6.925
12547SOL     OW39647   3.193  10.089   5.407
12547SOL    HW139648   3.212  10.068   5.498
12547SOL    HW239649   3.252  10.161   5.386
12548SOL     OW39650   1.306   0.020  10.509
12548SOL    HW139651   1.342  -0.063  10.541
12548SOL    HW239652   1.373   0.054  10.449
12549SOL     OW39653   1.055   7.778   8.009
12549SOL    HW139654   1.075   7.863   7.969
12549SOL    HW239655   1.021   7.799   8.095
12550SOL     OW39656   9.866   4.475  10.396
12550SOL    HW139657   9.845   4.524  10.316
12550SOL    HW239658   9.800   4.503  10.459
12551SOL     OW39659   8.613   8.331  11.053
12551SOL    HW139660   8.576   8.368  11.133
12551SOL    HW239661   8.585   8.239  11.053
12552SOL     OW39662   3.381   2.645   5.059
12552SOL    HW139663   3.294   2.663   5.023
12552SOL    HW239664   3.369   2.646   5.154
12553SOL     OW39665   6.200   6.318   0.721
12553SOL    HW139666   6.157   6.400   0.699
12553SOL    HW239667   6.279   6.344   0.768
12554SOL     OW39668   3.637   2.400   8.229
12554SOL    HW139669   3.661   2.453   8.153
12554SOL    HW239670   3.668   2.450   8.304
12555SOL     OW39671   6.733   9.686   3.151
12555SOL    HW139672   6.802   9.649   3.206
12555SOL    HW239673   6.651   9.659   3.193
12556SOL     OW39674   9.463   8.384   1.679
12556SOL    HW139675   9.489   8.410   1.767
12556SOL    HW239676   9.546   8.367   1.634
12557SOL     OW39677   0.516  10.026   7.618
12557SOL    HW139678   0.544   9.946   7.662
12557SOL    HW239679   0.424  10.035   7.641
12558SOL     OW39680   3.407   2.067   5.207
12558SOL    HW139681   3.462   2.124   5.260
12558SOL    HW239682   3.458   1.986   5.199
12559SOL     OW39683   4.327   9.813   5.574
12559SOL    HW139684   4.287   9.828   5.488
12559SOL    HW239685   4.410   9.770   5.554
12560SOL     OW39686   8.005   9.242   9.240
12560SOL    HW139687   8.094   9.251   9.206
12560SOL    HW239688   7.949   9.274   9.169
12561SOL     OW39689   2.223   8.039   6.434
12561SOL    HW139690   2.307   7.994   6.420
12561SOL    HW239691   2.175   8.027   6.352
12562SOL     OW39692   3.325   6.464   4.019
12562SOL    HW139693   3.288   6.398   4.078
12562SOL    HW239694   3.255   6.527   4.007
12563SOL     OW39695   0.294   7.475   6.428
12563SOL    HW139696   0.269   7.403   6.486
12563SOL    HW239697   0.279   7.441   6.339
12564SOL     OW39698  10.653   2.782   4.921
12564SOL    HW139699  10.568   2.768   4.880
12564SOL    HW239700  10.711   2.718   4.878
12565SOL     OW39701   2.327   4.262   2.134
12565SOL    HW139702   2.361   4.182   2.175
12565SOL    HW239703   2.355   4.256   2.042
12566SOL     OW39704   4.099   6.619   5.741
12566SOL    HW139705   4.102   6.650   5.650
12566SOL    HW239706   4.166   6.670   5.786
12567SOL     OW39707   0.911   7.654  10.819
12567SOL    HW139708   0.980   7.698  10.769
12567SOL    HW239709   0.830   7.679  10.774
12568SOL     OW39710   0.898   3.421   9.121
12568SOL    HW139711   0.875   3.337   9.162
12568SOL    HW239712   0.965   3.398   9.056
12569SOL     OW39713   3.661   8.611   8.275
12569SOL    HW139714   3.566   8.618   8.269
12569SOL    HW239715   3.683   8.533   8.224
12570SOL     OW39716   1.535   2.323   8.570
12570SOL    HW139717   1.571   2.366   8.492
12570SOL    HW239718   1.602   2.259   8.595
12571SOL     OW39719   7.412   8.247   9.533
12571SOL    HW139720   7.481   8.311   9.516
12571SOL    HW239721   7.408   8.241   9.628
12572SOL     OW39722   4.175   7.544   2.513
12572SOL    HW139723   4.180   7.481   2.441
12572SOL    HW239724   4.255   7.528   2.564
12573SOL     OW39725   5.314   9.110   9.607
12573SOL    HW139726   5.320   9.141   9.516
12573SOL    HW239727   5.223   9.126   9.632
12574SOL     OW39728   1.780   5.176   0.459
12574SOL    HW139729   1.777   5.162   0.364
12574SOL    HW239730   1.771   5.088   0.496
12575SOL     OW39731   3.364  10.681   6.591
12575SOL    HW139732   3.400  10.749   6.648
12575SOL    HW239733   3.301  10.727   6.535
12576SOL     OW39734  10.021   0.393   3.330
12576SOL    HW139735   9.972   0.474   3.319
12576SOL    HW239736   9.994   0.359   3.415
12577SOL     OW39737   9.092   7.448   1.710
12577SOL    HW139738   9.121   7.533   1.678
12577SOL    HW239739   9.016   7.467   1.765
12578SOL     OW39740   8.456   8.597   4.493
12578SOL    HW139741   8.371   8.639   4.483
12578SOL    HW239742   8.439   8.504   4.476
12579SOL     OW39743   4.574   5.197   0.229
12579SOL    HW139744   4.667   5.175   0.225
12579SOL    HW239745   4.572   5.292   0.231
12580SOL     OW39746   3.837   1.750   8.248
12580SOL    HW139747   3.856   1.840   8.275
12580SOL    HW239748   3.757   1.727   8.295
12581SOL     OW39749   7.036  10.577   0.315
12581SOL    HW139750   7.015  10.669   0.331
12581SOL    HW239751   7.005  10.561   0.226
12582SOL     OW39752  10.572   8.941   7.160
12582SOL    HW139753  10.609   8.997   7.092
12582SOL    HW239754  10.479   8.964   7.163
12583SOL     OW39755   0.394   8.626   4.474
12583SOL    HW139756   0.431   8.545   4.510
12583SOL    HW239757   0.450   8.695   4.507
12584SOL     OW39758   4.896   8.226   4.288
12584SOL    HW139759   4.907   8.143   4.242
12584SOL    HW239760   4.818   8.213   4.342
12585SOL     OW39761   2.807   4.705   6.585
12585SOL    HW139762   2.739   4.640   6.604
12585SOL    HW239763   2.859   4.665   6.515
12586SOL     OW39764  10.913   6.614   5.802
12586SOL    HW139765  10.844   6.668   5.841
12586SOL    HW239766  10.994   6.660   5.823
12587SOL     OW39767   8.023   1.704  10.721
12587SOL    HW139768   8.000   1.712  10.813
12587SOL    HW239769   7.947   1.739  10.674
12588SOL     OW39770   1.638   5.839   2.105
12588SOL    HW139771   1.708   5.862   2.044
12588SOL    HW239772   1.568   5.901   2.086
12589SOL     OW39773   0.673   5.716   4.940
12589SOL    HW139774   0.688   5.801   4.899
12589SOL    HW239775   0.651   5.658   4.867
12590SOL     OW39776   2.243   9.385   3.522
12590SOL    HW139777   2.164   9.352   3.480
12590SOL    HW239778   2.258   9.470   3.481
12591SOL     OW39779   8.352   7.924   1.905
12591SOL    HW139780   8.258   7.911   1.913
12591SOL    HW239781   8.365   8.018   1.918
12592SOL     OW39782   6.134   6.581  11.088
12592SOL    HW139783   6.073   6.550  11.155
12592SOL    HW239784   6.108   6.671  11.071
12593SOL     OW39785   7.206   4.805   9.063
12593SOL    HW139786   7.147   4.860   9.114
12593SOL    HW239787   7.273   4.865   9.031
12594SOL     OW39788   2.460   0.710   8.051
12594SOL    HW139789   2.426   0.621   8.036
12594SOL    HW239790   2.431   0.760   7.975
12595SOL     OW39791   4.458   7.475   2.507
12595SOL    HW139792   4.416   7.439   2.429
12595SOL    HW239793   4.552   7.469   2.489
12596SOL     OW39794   5.535   2.222   1.352
12596SOL    HW139795   5.505   2.262   1.433
12596SOL    HW239796   5.524   2.289   1.285
12597SOL     OW39797   3.540   2.610  10.749
12597SOL    HW139798   3.498   2.684  10.705
12597SOL    HW239799   3.473   2.576  10.808
12598SOL     OW39800   6.531   4.134   3.891
12598SOL    HW139801   6.449   4.180   3.876
12598SOL    HW239802   6.574   4.184   3.960
12599SOL     OW39803   6.117   7.097   8.594
12599SOL    HW139804   6.197   7.145   8.573
12599SOL    HW239805   6.052   7.165   8.611
12600SOL     OW39806   2.891   4.792   3.637
12600SOL    HW139807   2.812   4.838   3.665
12600SOL    HW239808   2.938   4.773   3.718
12601SOL     OW39809   8.283   1.098   4.211
12601SOL    HW139810   8.246   1.170   4.261
12601SOL    HW239811   8.211   1.036   4.201
12602SOL     OW39812   3.128   7.702   7.534
12602SOL    HW139813   3.208   7.650   7.538
12602SOL    HW239814   3.120   7.740   7.621
12603SOL     OW39815   0.662   1.306   0.418
12603SOL    HW139816   0.614   1.236   0.461
12603SOL    HW239817   0.640   1.385   0.467
12604SOL     OW39818   8.397   4.693   0.549
12604SOL    HW139819   8.361   4.698   0.460
12604SOL    HW239820   8.339   4.748   0.602
12605SOL     OW39821   3.330  10.775   7.566
12605SOL    HW139822   3.344  10.866   7.592
12605SOL    HW239823   3.286  10.781   7.481
12606SOL     OW39824   3.174   6.858   1.814
12606SOL    HW139825   3.129   6.834   1.895
12606SOL    HW239826   3.178   6.776   1.763
12607SOL     OW39827   4.421   0.861   0.756
12607SOL    HW139828   4.516   0.869   0.744
12607SOL    HW239829   4.410   0.837   0.848
12608SOL     OW39830  10.431   3.923   6.178
12608SOL    HW139831  10.343   3.923   6.215
12608SOL    HW239832  10.488   3.943   6.252
12609SOL     OW39833   4.900   9.495   3.505
12609SOL    HW139834   4.862   9.431   3.445
12609SOL    HW239835   4.825   9.545   3.536
12610SOL     OW39836  11.068   8.224   1.335
12610SOL    HW139837  11.118   8.293   1.378
12610SOL    HW239838  11.103   8.142   1.371
12611SOL     OW39839   7.435   0.071   1.314
12611SOL    HW139840   7.433   0.001   1.249
12611SOL    HW239841   7.508   0.048   1.371
12612SOL     OW39842   5.174   0.728   2.606
12612SOL    HW139843   5.229   0.650   2.602
12612SOL    HW239844   5.170   0.750   2.699
12613SOL     OW39845   4.834   1.715   6.790
12613SOL    HW139846   4.768   1.699   6.722
12613SOL    HW239847   4.916   1.682   6.752
12614SOL     OW39848  10.304   4.237   1.388
12614SOL    HW139849  10.381   4.219   1.443
12614SOL    HW239850  10.340   4.247   1.299
12615SOL     OW39851   1.425   4.138  10.074
12615SOL    HW139852   1.413   4.044  10.059
12615SOL    HW239853   1.341   4.168  10.108
12616SOL     OW39854   0.354   2.140   1.310
12616SOL    HW139855   0.441   2.139   1.270
12616SOL    HW239856   0.345   2.228   1.346
12617SOL     OW39857   3.121   4.781  11.089
12617SOL    HW139858   3.065   4.858  11.093
12617SOL    HW239859   3.065   4.711  11.055
12618SOL     OW39860   0.819   8.113   7.783
12618SOL    HW139861   0.833   8.030   7.736
12618SOL    HW239862   0.778   8.170   7.718
12619SOL     OW39863   2.908   4.633  10.969
12619SOL    HW139864   2.906   4.537  10.965
12619SOL    HW239865   2.824   4.657  11.006
12620SOL     OW39866   1.738   9.003   6.295
12620SOL    HW139867   1.730   8.907   6.298
12620SOL    HW239868   1.792   9.020   6.218
12621SOL     OW39869   6.514   7.456   5.438
12621SOL    HW139870   6.425   7.425   5.456
12621SOL    HW239871   6.503   7.543   5.401
12622SOL     OW39872   0.433   7.106   5.344
12622SOL    HW139873   0.462   7.109   5.252
12622SOL    HW239874   0.506   7.064   5.391
12623SOL     OW39875   0.853   0.950   5.267
12623SOL    HW139876   0.796   1.009   5.218
12623SOL    HW239877   0.794   0.887   5.308
12624SOL     OW39878  10.148   5.862   0.109
12624SOL    HW139879  10.123   5.839   0.020
12624SOL    HW239880  10.122   5.786   0.161
12625SOL     OW39881   6.570   1.302  10.965
12625SOL    HW139882   6.568   1.396  10.950
12625SOL    HW239883   6.485   1.271  10.935
12626SOL     OW39884  10.948   2.074   3.978
12626SOL    HW139885  10.959   2.042   3.888
12626SOL    HW239886  10.875   2.135   3.973
12627SOL     OW39887   8.236   8.742   1.659
12627SOL    HW139888   8.184   8.661   1.659
12627SOL    HW239889   8.326   8.712   1.644
12628SOL     OW39890   2.967   6.599   3.749
12628SOL    HW139891   2.959   6.535   3.677
12628SOL    HW239892   2.890   6.583   3.804
12629SOL     OW39893   9.126   9.305   0.030
12629SOL    HW139894   9.134   9.228  -0.026
12629SOL    HW239895   9.048   9.288   0.083
12630SOL     OW39896   1.382   5.740   7.749
12630SOL    HW139897   1.392   5.786   7.832
12630SOL    HW239898   1.440   5.664   7.756
12631SOL     OW39899   7.154   0.489  10.620
12631SOL    HW139900   7.108   0.411  10.588
12631SOL    HW239901   7.123   0.500  10.710
12632SOL     OW39902   4.422   9.395   3.058
12632SOL    HW139903   4.351   9.408   3.120
12632SOL    HW239904   4.389   9.430   2.975
12633SOL     OW39905   3.103   8.954  10.336
12633SOL    HW139906   3.016   8.916  10.350
12633SOL    HW239907   3.086   9.045  10.311
12634SOL     OW39908   2.871   0.366  10.536
12634SOL    HW139909   2.933   0.293  10.544
12634SOL    HW239910   2.815   0.358  10.613
12635SOL     OW39911   5.176   7.886   6.181
12635SOL    HW139912   5.183   7.976   6.150
12635SOL    HW239913   5.091   7.856   6.149
12636SOL     OW39914   4.965  10.666   9.828
12636SOL    HW139915   4.934  10.738   9.772
12636SOL    HW239916   4.885  10.623   9.858
12637SOL     OW39917   5.946   3.080   4.084
12637SOL    HW139918   5.986   3.044   4.163
12637SOL    HW239919   5.975   3.171   4.082
12638SOL     OW39920   6.831   1.099   4.175
12638SOL    HW139921   6.886   1.048   4.234
12638SOL    HW239922   6.861   1.074   4.087
12639SOL     OW39923   5.673   6.955   9.416
12639SOL    HW139924   5.718   6.950   9.500
12639SOL    HW239925   5.695   7.041   9.381
12640SOL     OW39926   6.944   5.267   3.001
12640SOL    HW139927   7.005   5.224   2.940
12640SOL    HW239928   6.982   5.251   3.087
12641SOL     OW39929   7.736   2.481   1.629
12641SOL    HW139930   7.673   2.550   1.647
12641SOL    HW239931   7.778   2.463   1.713
12642SOL     OW39932   2.003   4.814   0.508
12642SOL    HW139933   2.076   4.760   0.539
12642SOL    HW239934   2.042   4.873   0.443
12643SOL     OW39935   5.612   2.725   4.200
12643SOL    HW139936   5.663   2.789   4.249
12643SOL    HW239937   5.664   2.708   4.121
12644SOL     OW39938   6.942   4.704   3.342
12644SOL    HW139939   7.028   4.713   3.383
12644SOL    HW239940   6.898   4.636   3.393
12645SOL     OW39941   4.511   3.355  10.478
12645SOL    HW139942   4.578   3.293  10.448
12645SOL    HW239943   4.434   3.332  10.426
12646SOL     OW39944   3.808   9.184   5.414
12646SOL    HW139945   3.796   9.115   5.348
12646SOL    HW239946   3.781   9.264   5.370
12647SOL     OW39947   1.781  10.342   2.458
12647SOL    HW139948   1.820  10.427   2.477
12647SOL    HW239949   1.728  10.322   2.535
12648SOL     OW39950   1.466   8.215   3.399
12648SOL    HW139951   1.431   8.301   3.377
12648SOL    HW239952   1.412   8.185   3.472
12649SOL     OW39953   5.614   1.515   5.669
12649SOL    HW139954   5.554   1.524   5.743
12649SOL    HW239955   5.689   1.570   5.692
12650SOL     OW39956   5.414   0.090   3.759
12650SOL    HW139957   5.327   0.094   3.799
12650SOL    HW239958   5.400   0.115   3.667
12651SOL     OW39959   1.455   0.275   4.773
12651SOL    HW139960   1.513   0.333   4.723
12651SOL    HW239961   1.446   0.197   4.718
12652SOL     OW39962   7.875   7.018   4.867
12652SOL    HW139963   7.895   7.074   4.941
12652SOL    HW239964   7.791   7.049   4.835
12653SOL     OW39965  11.060   2.702   6.949
12653SOL    HW139966  11.045   2.723   6.857
12653SOL    HW239967  11.015   2.618   6.962
12654SOL     OW39968   3.397  10.235   7.253
12654SOL    HW139969   3.351  10.188   7.183
12654SOL    HW239970   3.350  10.317   7.262
12655SOL     OW39971   2.549   9.411   9.782
12655SOL    HW139972   2.480   9.476   9.769
12655SOL    HW239973   2.599   9.412   9.700
12656SOL     OW39974   3.984   9.148   5.020
12656SOL    HW139975   4.019   9.188   5.099
12656SOL    HW239976   4.051   9.084   4.994
12657SOL     OW39977   6.917   6.402   2.968
12657SOL    HW139978   6.877   6.317   2.948
12657SOL    HW239979   6.999   6.402   2.918
12658SOL     OW39980   3.289   5.826   3.742
12658SOL    HW139981   3.373   5.815   3.697
12658SOL    HW239982   3.262   5.737   3.764
12659SOL     OW39983   8.804   7.138   4.770
12659SOL    HW139984   8.860   7.201   4.725
12659SOL    HW239985   8.825   7.054   4.729
12660SOL     OW39986   0.535   3.748   5.723
12660SOL    HW139987   0.457   3.749   5.667
12660SOL    HW239988   0.508   3.700   5.801
12661SOL     OW39989   1.744   3.668   4.218
12661SOL    HW139990   1.718   3.576   4.218
12661SOL    HW239991   1.699   3.705   4.142
12662SOL     OW39992   0.976   7.981   9.657
12662SOL    HW139993   0.994   8.067   9.694
12662SOL    HW239994   0.976   7.922   9.732
12663SOL     OW39995   3.685   8.245   1.552
12663SOL    HW139996   3.620   8.176   1.541
12663SOL    HW239997   3.651   8.300   1.622
12664SOL     OW39998   5.957   4.875   1.155
12664SOL    HW139999   5.902   4.831   1.090
12664SOL    HW240000   5.971   4.809   1.222
12665SOL     OW40001  10.256   8.414   7.680
12665SOL    HW140002  10.329   8.472   7.700
12665SOL    HW240003  10.194   8.469   7.633
12666SOL     OW40004   6.595   0.885   9.659
12666SOL    HW140005   6.534   0.811   9.654
12666SOL    HW240006   6.569   0.941   9.586
12667SOL     OW40007   1.972   0.026   3.975
12667SOL    HW140008   2.011   0.011   4.061
12667SOL    HW240009   2.041   0.001   3.913
12668SOL     OW40010   5.327   5.899   1.190
12668SOL    HW140011   5.327   5.986   1.152
12668SOL    HW240012   5.335   5.913   1.284
12669SOL     OW40013   8.597   5.108   1.807
12669SOL    HW140014   8.549   5.104   1.724
12669SOL    HW240015   8.655   5.183   1.797
12670SOL     OW40016   6.711   8.640   1.224
12670SOL    HW140017   6.666   8.569   1.178
12670SOL    HW240018   6.641   8.697   1.253
12671SOL     OW40019  10.959   1.199   1.468
12671SOL    HW140020  10.880   1.245   1.494
12671SOL    HW240021  11.025   1.224   1.533
12672SOL     OW40022   5.071   7.728  10.689
12672SOL    HW140023   5.090   7.635  10.701
12672SOL    HW240024   5.134   7.773  10.745
12673SOL     OW40025   4.866   8.683   4.027
12673SOL    HW140026   4.841   8.679   3.934
12673SOL    HW240027   4.880   8.776   4.044
12674SOL     OW40028   7.307   9.926   3.914
12674SOL    HW140029   7.377   9.915   3.850
12674SOL    HW240030   7.318   9.853   3.975
12675SOL     OW40031  10.447  10.096  10.349
12675SOL    HW140032  10.398  10.168  10.310
12675SOL    HW240033  10.380  10.033  10.376
12676SOL     OW40034   5.963   0.650   5.461
12676SOL    HW140035   5.989   0.683   5.375
12676SOL    HW240036   5.938   0.559   5.444
12677SOL     OW40037   2.801   0.148   4.035
12677SOL    HW140038   2.807   0.154   3.939
12677SOL    HW240039   2.890   0.129   4.064
12678SOL     OW40040   3.521  10.798   0.712
12678SOL    HW140041   3.458  10.808   0.783
12678SOL    HW240042   3.563  10.714   0.729
12679SOL     OW40043   2.391   2.714   4.700
12679SOL    HW140044   2.333   2.779   4.660
12679SOL    HW240045   2.441   2.677   4.626
12680SOL     OW40046   5.961   4.668   7.683
12680SOL    HW140047   5.971   4.728   7.609
12680SOL    HW240048   6.049   4.663   7.722
12681SOL     OW40049   3.238   7.289  10.576
12681SOL    HW140050   3.293   7.367  10.575
12681SOL    HW240051   3.296   7.218  10.549
12682SOL     OW40052   4.061   7.507   7.633
12682SOL    HW140053   3.990   7.490   7.694
12682SOL    HW240054   4.021   7.497   7.546
12683SOL     OW40055   0.190   6.470   2.632
12683SOL    HW140056   0.214   6.406   2.699
12683SOL    HW240057   0.156   6.545   2.680
12684SOL     OW40058   5.385  10.641   6.565
12684SOL    HW140059   5.362  10.598   6.482
12684SOL    HW240060   5.447  10.709   6.539
12685SOL     OW40061  10.935   8.591   2.607
12685SOL    HW140062  10.840   8.591   2.619
12685SOL    HW240063  10.953   8.507   2.564
12686SOL     OW40064   4.298   6.273   2.372
12686SOL    HW140065   4.338   6.265   2.285
12686SOL    HW240066   4.248   6.354   2.368
12687SOL     OW40067   6.046   9.469  10.000
12687SOL    HW140068   6.118   9.527   9.974
12687SOL    HW240069   6.028   9.417   9.922
12688SOL     OW40070   2.161   9.152   3.990
12688SOL    HW140071   2.101   9.172   3.918
12688SOL    HW240072   2.114   9.087   4.042
12689SOL     OW40073   1.064   5.768   3.951
12689SOL    HW140074   1.074   5.673   3.938
12689SOL    HW240075   1.008   5.796   3.878
12690SOL     OW40076  10.884   1.717   6.590
12690SOL    HW140077  10.945   1.763   6.647
12690SOL    HW240078  10.801   1.763   6.601
12691SOL     OW40079   4.895   4.158   1.070
12691SOL    HW140080   4.960   4.103   1.027
12691SOL    HW240081   4.812   4.130   1.032
12692SOL     OW40082   0.777   4.506   6.777
12692SOL    HW140083   0.753   4.422   6.737
12692SOL    HW240084   0.865   4.491   6.813
12693SOL     OW40085   3.243   7.349   2.995
12693SOL    HW140086   3.217   7.287   2.926
12693SOL    HW240087   3.186   7.424   2.982
12694SOL     OW40088   8.149   7.738  10.181
12694SOL    HW140089   8.106   7.677  10.241
12694SOL    HW240090   8.166   7.686  10.102
12695SOL     OW40091   3.057   2.367   1.062
12695SOL    HW140092   3.092   2.311   0.992
12695SOL    HW240093   3.108   2.448   1.056
12696SOL     OW40094  10.708   9.539   4.433
12696SOL    HW140095  10.626   9.557   4.387
12696SOL    HW240096  10.686   9.469   4.495
12697SOL     OW40097   1.581   6.842   0.088
12697SOL    HW140098   1.623   6.764   0.124
12697SOL    HW240099   1.599   6.910   0.153
12698SOL     OW40100   0.164   4.754   5.513
12698SOL    HW140101   0.161   4.659   5.498
12698SOL    HW240102   0.072   4.780   5.520
12699SOL     OW40103   3.085   4.943   9.791
12699SOL    HW140104   3.095   5.031   9.827
12699SOL    HW240105   3.002   4.912   9.826
12700SOL     OW40106   2.538   6.499   0.060
12700SOL    HW140107   2.523   6.482   0.153
12700SOL    HW240108   2.450   6.505   0.022
12701SOL     OW40109  10.765   8.089   0.167
12701SOL    HW140110  10.784   8.017   0.227
12701SOL    HW240111  10.851   8.121   0.141
12702SOL     OW40112   4.383   3.314   5.745
12702SOL    HW140113   4.334   3.383   5.701
12702SOL    HW240114   4.429   3.269   5.674
12703SOL     OW40115   4.179   4.821   4.484
12703SOL    HW140116   4.264   4.853   4.454
12703SOL    HW240117   4.135   4.793   4.403
12704SOL     OW40118   4.179   5.994   3.461
12704SOL    HW140119   4.211   6.081   3.484
12704SOL    HW240120   4.103   5.980   3.518
12705SOL     OW40121   9.506  11.065   4.659
12705SOL    HW140122   9.538  10.998   4.719
12705SOL    HW240123   9.497  11.020   4.575
12706SOL     OW40124   6.344   6.026   9.326
12706SOL    HW140125   6.297   6.059   9.402
12706SOL    HW240126   6.276   6.011   9.260
12707SOL     OW40127   4.605   8.969   2.589
12707SOL    HW140128   4.648   8.887   2.614
12707SOL    HW240129   4.512   8.949   2.593
12708SOL     OW40130   1.355   5.511   8.950
12708SOL    HW140131   1.298   5.442   8.916
12708SOL    HW240132   1.314   5.592   8.921
12709SOL     OW40133   7.436   7.472   7.284
12709SOL    HW140134   7.506   7.536   7.298
12709SOL    HW240135   7.430   7.464   7.188
12710SOL     OW40136  10.700   5.035   3.493
12710SOL    HW140137  10.769   4.976   3.524
12710SOL    HW240138  10.633   4.976   3.458
12711SOL     OW40139   2.313   6.257   4.245
12711SOL    HW140140   2.398   6.212   4.246
12711SOL    HW240141   2.317   6.317   4.319
12712SOL     OW40142   1.314   9.475   0.281
12712SOL    HW140143   1.256   9.401   0.262
12712SOL    HW240144   1.402   9.438   0.272
12713SOL     OW40145   2.273   5.152   2.838
12713SOL    HW140146   2.255   5.132   2.930
12713SOL    HW240147   2.211   5.221   2.815
12714SOL     OW40148   0.824   1.660   4.835
12714SOL    HW140149   0.729   1.654   4.841
12714SOL    HW240150   0.840   1.747   4.798
12715SOL     OW40151   7.640   7.268   5.595
12715SOL    HW140152   7.654   7.218   5.676
12715SOL    HW240153   7.626   7.201   5.528
12716SOL     OW40154   0.100   4.545   3.898
12716SOL    HW140155   0.085   4.639   3.907
12716SOL    HW240156   0.180   4.538   3.846
12717SOL     OW40157   1.998   3.425   1.829
12717SOL    HW140158   1.959   3.434   1.742
12717SOL    HW240159   1.925   3.400   1.886
12718SOL     OW40160   7.185   7.276   8.784
12718SOL    HW140161   7.099   7.293   8.821
12718SOL    HW240162   7.221   7.205   8.837
12719SOL     OW40163   2.793   8.690  11.023
12719SOL    HW140164   2.783   8.688  10.928
12719SOL    HW240165   2.857   8.759  11.039
12720SOL     OW40166   3.793   9.000   5.184
12720SOL    HW140167   3.846   9.042   5.116
12720SOL    HW240168   3.789   8.908   5.157
12721SOL     OW40169   1.957   9.941   5.701
12721SOL    HW140170   1.967   9.967   5.609
12721SOL    HW240171   2.028   9.985   5.747
12722SOL     OW40172   6.747  10.872   5.428
12722SOL    HW140173   6.737  10.888   5.522
12722SOL    HW240174   6.658  10.856   5.397
12723SOL     OW40175   8.067   5.510   6.741
12723SOL    HW140176   8.151   5.464   6.741
12723SOL    HW240177   8.020   5.472   6.666
12724SOL     OW40178   6.046   8.726   1.825
12724SOL    HW140179   6.095   8.806   1.845
12724SOL    HW240180   6.093   8.656   1.872
12725SOL     OW40181   2.511   7.534   1.086
12725SOL    HW140182   2.492   7.523   1.179
12725SOL    HW240183   2.520   7.628   1.074
12726SOL     OW40184   7.466   4.411   3.168
12726SOL    HW140185   7.504   4.419   3.255
12726SOL    HW240186   7.440   4.319   3.161
12727SOL     OW40187  10.921   9.276   4.966
12727SOL    HW140188  10.961   9.327   4.895
12727SOL    HW240189  10.827   9.292   4.957
12728SOL     OW40190   0.638   4.958   6.302
12728SOL    HW140191   0.644   5.036   6.247
12728SOL    HW240192   0.671   4.986   6.387
12729SOL     OW40193   7.778   7.195   2.723
12729SOL    HW140194   7.806   7.196   2.814
12729SOL    HW240195   7.780   7.102   2.698
12730SOL     OW40196   9.631   3.272   9.231
12730SOL    HW140197   9.569   3.297   9.162
12730SOL    HW240198   9.717   3.290   9.193
12731SOL     OW40199   8.562   9.009   6.506
12731SOL    HW140200   8.628   9.003   6.437
12731SOL    HW240201   8.499   8.940   6.484
12732SOL     OW40202   7.852   7.662   0.320
12732SOL    HW140203   7.855   7.671   0.224
12732SOL    HW240204   7.852   7.751   0.353
12733SOL     OW40205   2.794   6.748   2.542
12733SOL    HW140206   2.708   6.788   2.535
12733SOL    HW240207   2.824   6.770   2.630
12734SOL     OW40208   6.528  11.092   1.865
12734SOL    HW140209   6.526  10.998   1.880
12734SOL    HW240210   6.604  11.106   1.809
12735SOL     OW40211   1.355   1.792   7.940
12735SOL    HW140212   1.321   1.859   7.881
12735SOL    HW240213   1.358   1.834   8.025
12736SOL     OW40214   2.742   1.231   7.756
12736SOL    HW140215   2.825   1.206   7.796
12736SOL    HW240216   2.754   1.322   7.731
12737SOL     OW40217   2.355   5.566   3.433
12737SOL    HW140218   2.348   5.625   3.507
12737SOL    HW240219   2.392   5.485   3.470
12738SOL     OW40220   0.995   6.681   3.104
12738SOL    HW140221   0.976   6.774   3.100
12738SOL    HW240222   0.920   6.643   3.149
12739SOL     OW40223   6.288  11.057   3.592
12739SOL    HW140224   6.364  11.074   3.648
12739SOL    HW240225   6.286  10.962   3.583
12740SOL     OW40226   2.129   8.399   6.974
12740SOL    HW140227   2.072   8.475   6.985
12740SOL    HW240228   2.167   8.385   7.060
12741SOL     OW40229  10.883   5.051   0.378
12741SOL    HW140230  10.922   5.070   0.292
12741SOL    HW240231  10.939   5.097   0.440
12742SOL     OW40232   4.650   9.251   2.975
12742SOL    HW140233   4.560   9.277   2.995
12742SOL    HW240234   4.643   9.160   2.945
12743SOL     OW40235   8.223   5.175  10.280
12743SOL    HW140236   8.151   5.235  10.297
12743SOL    HW240237   8.299   5.216  10.321
12744SOL     OW40238   3.544   0.931   0.401
12744SOL    HW140239   3.615   0.866   0.401
12744SOL    HW240240   3.568   0.992   0.470
12745SOL     OW40241   2.694   8.805   2.657
12745SOL    HW140242   2.738   8.857   2.590
12745SOL    HW240243   2.759   8.739   2.681
12746SOL     OW40244   6.447   3.960   9.890
12746SOL    HW140245   6.486   3.873   9.879
12746SOL    HW240246   6.362   3.943   9.929
12747SOL     OW40247   8.173   6.116   2.377
12747SOL    HW140248   8.200   6.032   2.339
12747SOL    HW240249   8.217   6.119   2.462
12748SOL     OW40250   3.000   1.854   1.260
12748SOL    HW140251   2.926   1.914   1.270
12748SOL    HW240252   3.031   1.869   1.171
12749SOL     OW40253   5.098   5.903   3.484
12749SOL    HW140254   5.146   5.928   3.562
12749SOL    HW240255   5.038   5.834   3.513
12750SOL     OW40256   1.811   7.043   8.712
12750SOL    HW140257   1.841   6.968   8.660
12750SOL    HW240258   1.886   7.102   8.715
12751SOL     OW40259   7.393   5.208   4.264
12751SOL    HW140260   7.318   5.267   4.274
12751SOL    HW240261   7.469   5.262   4.285
12752SOL     OW40262   4.096   0.589   4.967
12752SOL    HW140263   4.119   0.608   5.058
12752SOL    HW240264   4.002   0.571   4.969
12753SOL     OW40265  10.578   2.479   1.804
12753SOL    HW140266  10.641   2.472   1.732
12753SOL    HW240267  10.629   2.517   1.876
12754SOL     OW40268   6.036   8.750   0.353
12754SOL    HW140269   5.967   8.802   0.313
12754SOL    HW240270   6.112   8.764   0.296
12755SOL     OW40271   9.842   9.919   2.556
12755SOL    HW140272   9.794   9.972   2.492
12755SOL    HW240273   9.932   9.916   2.522
12756SOL     OW40274   6.677   3.729   6.319
12756SOL    HW140275   6.733   3.787   6.370
12756SOL    HW240276   6.639   3.785   6.251
12757SOL     OW40277   4.773   8.548   0.668
12757SOL    HW140278   4.734   8.590   0.744
12757SOL    HW240279   4.701   8.540   0.605
12758SOL     OW40280   4.814   3.649   5.883
12758SOL    HW140281   4.788   3.716   5.820
12758SOL    HW240282   4.908   3.637   5.868
12759SOL     OW40283   6.586   4.493   2.917
12759SOL    HW140284   6.555   4.448   2.995
12759SOL    HW240285   6.682   4.491   2.924
12760SOL     OW40286   9.129   8.356   9.280
12760SOL    HW140287   9.052   8.361   9.223
12760SOL    HW240288   9.100   8.304   9.355
12761SOL     OW40289   1.720   3.628   7.327
12761SOL    HW140290   1.716   3.708   7.275
12761SOL    HW240291   1.809   3.594   7.313
12762SOL     OW40292   5.222   0.961   3.001
12762SOL    HW140293   5.286   1.015   3.048
12762SOL    HW240294   5.204   1.009   2.920
12763SOL     OW40295   3.476   2.943   2.620
12763SOL    HW140296   3.400   2.985   2.661
12763SOL    HW240297   3.438   2.878   2.561
12764SOL     OW40298   7.323   9.940  10.348
12764SOL    HW140299   7.378  10.015  10.369
12764SOL    HW240300   7.308   9.947  10.253
12765SOL     OW40301   8.815   9.057   5.593
12765SOL    HW140302   8.829   9.150   5.578
12765SOL    HW240303   8.816   9.018   5.505
12766SOL     OW40304   7.947   6.234   2.261
12766SOL    HW140305   7.934   6.166   2.194
12766SOL    HW240306   7.993   6.189   2.331
12767SOL     OW40307   2.503   1.197   4.702
12767SOL    HW140308   2.572   1.258   4.678
12767SOL    HW240309   2.532   1.113   4.666
12768SOL     OW40310   2.012   1.333   2.107
12768SOL    HW140311   2.106   1.343   2.124
12768SOL    HW240312   1.990   1.407   2.051
12769SOL     OW40313  10.679   0.555   3.254
12769SOL    HW140314  10.643   0.510   3.177
12769SOL    HW240315  10.658   0.647   3.240
12770SOL     OW40316  11.034   7.933   2.475
12770SOL    HW140317  10.997   7.910   2.560
12770SOL    HW240318  11.049   7.849   2.432
12771SOL     OW40319   4.491   1.572   1.353
12771SOL    HW140320   4.477   1.662   1.380
12771SOL    HW240321   4.414   1.550   1.301
12772SOL     OW40322   3.026   8.992   1.494
12772SOL    HW140323   2.962   9.052   1.456
12772SOL    HW240324   3.028   8.917   1.433
12773SOL     OW40325   4.968   3.232   5.925
12773SOL    HW140326   4.972   3.140   5.953
12773SOL    HW240327   4.965   3.227   5.829
12774SOL     OW40328   7.848   4.706   2.383
12774SOL    HW140329   7.929   4.670   2.347
12774SOL    HW240330   7.877   4.766   2.452
12775SOL     OW40331   7.772   7.414   9.763
12775SOL    HW140332   7.820   7.369   9.693
12775SOL    HW240333   7.682   7.381   9.755
12776SOL     OW40334   7.154   9.024   9.844
12776SOL    HW140335   7.177   9.057   9.757
12776SOL    HW240336   7.196   8.938   9.849
12777SOL     OW40337   8.792   5.146   5.563
12777SOL    HW140338   8.758   5.118   5.477
12777SOL    HW240339   8.835   5.068   5.598
12778SOL     OW40340   4.647   6.699   4.228
12778SOL    HW140341   4.656   6.708   4.323
12778SOL    HW240342   4.559   6.664   4.215
12779SOL     OW40343   2.908   8.475   0.133
12779SOL    HW140344   2.990   8.428   0.148
12779SOL    HW240345   2.916   8.510   0.045
12780SOL     OW40346   8.706   7.443  10.254
12780SOL    HW140347   8.716   7.537  10.240
12780SOL    HW240348   8.754   7.403  10.181
12781SOL     OW40349   0.654   4.467   5.372
12781SOL    HW140350   0.733   4.412   5.375
12781SOL    HW240351   0.681   4.545   5.323
12782SOL     OW40352   0.443   4.635   4.592
12782SOL    HW140353   0.350   4.630   4.615
12782SOL    HW240354   0.451   4.582   4.512
12783SOL     OW40355   3.085   0.431   0.319
12783SOL    HW140356   3.143   0.470   0.384
12783SOL    HW240357   3.011   0.398   0.369
12784SOL     OW40358   1.457   7.893  10.318
12784SOL    HW140359   1.483   7.977  10.356
12784SOL    HW240360   1.531   7.834  10.336
12785SOL     OW40361   1.838   1.264  10.132
12785SOL    HW140362   1.886   1.217  10.200
12785SOL    HW240363   1.836   1.355  10.162
12786SOL     OW40364   1.624   8.893   0.097
12786SOL    HW140365   1.614   8.953   0.170
12786SOL    HW240366   1.622   8.948   0.019
12787SOL     OW40367   4.916   6.544   3.725
12787SOL    HW140368   4.863   6.466   3.706
12787SOL    HW240369   4.990   6.537   3.664
12788SOL     OW40370   0.839   8.215   0.332
12788SOL    HW140371   0.781   8.290   0.319
12788SOL    HW240372   0.874   8.227   0.420
12789SOL     OW40373   3.402   5.306   3.695
12789SOL    HW140374   3.350   5.308   3.615
12789SOL    HW240375   3.485   5.266   3.668
12790SOL     OW40376   4.331   0.912   3.767
12790SOL    HW140377   4.418   0.927   3.804
12790SOL    HW240378   4.346   0.855   3.691
12791SOL     OW40379   2.676  11.060  10.555
12791SOL    HW140380   2.651  11.112  10.478
12791SOL    HW240381   2.753  11.105  10.590
12792SOL     OW40382   1.934   1.786   8.938
12792SOL    HW140383   1.960   1.709   8.989
12792SOL    HW240384   1.840   1.795   8.954
12793SOL     OW40385   8.322   6.240   4.697
12793SOL    HW140386   8.231   6.245   4.727
12793SOL    HW240387   8.372   6.217   4.775
12794SOL     OW40388   1.525   7.177   2.915
12794SOL    HW140389   1.580   7.103   2.888
12794SOL    HW240390   1.483   7.205   2.834
12795SOL     OW40391   6.805   4.686   2.705
12795SOL    HW140392   6.746   4.743   2.753
12795SOL    HW240393   6.879   4.672   2.764
12796SOL     OW40394  10.011   3.000   2.341
12796SOL    HW140395  10.009   2.928   2.278
12796SOL    HW240396   9.920   3.009   2.370
12797SOL     OW40397   5.151   9.829   0.627
12797SOL    HW140398   5.229   9.778   0.649
12797SOL    HW240399   5.134   9.808   0.535
12798SOL     OW40400   8.113   1.541  10.165
12798SOL    HW140401   8.074   1.493  10.091
12798SOL    HW240402   8.074   1.501  10.243
12799SOL     OW40403  10.399   9.071   5.765
12799SOL    HW140404  10.418   9.030   5.680
12799SOL    HW240405  10.441   9.157   5.760
12800SOL     OW40406   1.769   9.006   1.286
12800SOL    HW140407   1.817   8.994   1.368
12800SOL    HW240408   1.823   9.066   1.235
12801SOL     OW40409   3.604   8.325  10.979
12801SOL    HW140410   3.663   8.399  10.994
12801SOL    HW240411   3.662   8.250  10.966
12802SOL     OW40412   3.636  11.015   4.085
12802SOL    HW140413   3.691  11.090   4.062
12802SOL    HW240414   3.645  11.007   4.180
12803SOL     OW40415   7.267   8.798   4.909
12803SOL    HW140416   7.305   8.846   4.836
12803SOL    HW240417   7.251   8.710   4.874
12804SOL     OW40418   1.825   6.467   6.988
12804SOL    HW140419   1.738   6.435   6.962
12804SOL    HW240420   1.809   6.552   7.029
12805SOL     OW40421   8.862   6.852   2.331
12805SOL    HW140422   8.887   6.924   2.389
12805SOL    HW240423   8.945   6.808   2.310
12806SOL     OW40424   1.609   8.613   2.337
12806SOL    HW140425   1.608   8.576   2.248
12806SOL    HW240426   1.622   8.707   2.324
12807SOL     OW40427   1.541   9.220   1.066
12807SOL    HW140428   1.468   9.189   1.012
12807SOL    HW240429   1.618   9.173   1.032
12808SOL     OW40430   4.964   9.751   3.024
12808SOL    HW140431   4.884   9.804   3.020
12808SOL    HW240432   5.022   9.798   3.083
12809SOL     OW40433   7.011   9.384   2.928
12809SOL    HW140434   7.021   9.402   3.021
12809SOL    HW240435   7.053   9.458   2.884
12810SOL     OW40436   1.548  10.284   0.050
12810SOL    HW140437   1.543  10.198   0.093
12810SOL    HW240438   1.637  10.288   0.015
12811SOL     OW40439   2.094  10.021   2.360
12811SOL    HW140440   2.054  10.019   2.447
12811SOL    HW240441   2.134   9.934   2.350
12812SOL     OW40442   1.002   8.081   5.558
12812SOL    HW140443   1.028   8.126   5.638
12812SOL    HW240444   1.044   8.131   5.488
12813SOL     OW40445   4.751   9.634   5.307
12813SOL    HW140446   4.760   9.617   5.213
12813SOL    HW240447   4.841   9.646   5.338
12814SOL     OW40448   9.351  10.067  11.094
12814SOL    HW140449   9.284  10.128  11.123
12814SOL    HW240450   9.409  10.057  11.169
12815SOL     OW40451  10.189   2.247   1.987
12815SOL    HW140452  10.192   2.236   2.082
12815SOL    HW240453  10.261   2.193   1.954
12816SOL     OW40454   2.156   7.374   1.767
12816SOL    HW140455   2.088   7.342   1.826
12816SOL    HW240456   2.146   7.320   1.688
12817SOL     OW40457   0.942   7.609   1.888
12817SOL    HW140458   0.989   7.525   1.888
12817SOL    HW240459   0.850   7.585   1.881
12818SOL     OW40460   3.044   5.788   2.018
12818SOL    HW140461   3.025   5.868   1.970
12818SOL    HW240462   3.030   5.810   2.110
12819SOL     OW40463   7.223   6.884   3.923
12819SOL    HW140464   7.198   6.797   3.954
12819SOL    HW240465   7.311   6.872   3.888
12820SOL     OW40466   0.343   2.773   3.589
12820SOL    HW140467   0.404   2.708   3.623
12820SOL    HW240468   0.316   2.824   3.665
12821SOL     OW40469  10.584   9.367   9.657
12821SOL    HW140470  10.606   9.434   9.592
12821SOL    HW240471  10.512   9.318   9.617
12822SOL     OW40472   7.425   9.582   0.535
12822SOL    HW140473   7.486   9.619   0.598
12822SOL    HW240474   7.444   9.488   0.536
12823SOL     OW40475   7.719   6.533   1.618
12823SOL    HW140476   7.745   6.620   1.648
12823SOL    HW240477   7.683   6.547   1.530
12824SOL     OW40478   4.268   5.023   5.232
12824SOL    HW140479   4.353   5.005   5.272
12824SOL    HW240480   4.267   5.117   5.219
12825SOL     OW40481   0.937   6.739   0.913
12825SOL    HW140482   0.991   6.735   0.833
12825SOL    HW240483   0.879   6.814   0.899
12826SOL     OW40484   7.387   0.632   1.942
12826SOL    HW140485   7.409   0.709   1.994
12826SOL    HW240486   7.408   0.557   1.998
12827SOL     OW40487   1.379   6.753  10.301
12827SOL    HW140488   1.453   6.812  10.287
12827SOL    HW240489   1.416   6.681  10.352
12828SOL     OW40490   0.177   7.845   2.807
12828SOL    HW140491   0.143   7.888   2.885
12828SOL    HW240492   0.232   7.774   2.840
12829SOL     OW40493  10.453   7.385   8.045
12829SOL    HW140494  10.492   7.308   8.086
12829SOL    HW240495  10.380   7.350   7.994
12830SOL     OW40496   1.079   6.067  10.521
12830SOL    HW140497   0.989   6.047  10.495
12830SOL    HW240498   1.077   6.159  10.545
12831SOL     OW40499   6.680   9.110   6.253
12831SOL    HW140500   6.699   9.016   6.245
12831SOL    HW240501   6.656   9.122   6.345
12832SOL     OW40502   1.639   9.740   0.169
12832SOL    HW140503   1.704   9.809   0.158
12832SOL    HW240504   1.587   9.768   0.245
12833SOL     OW40505   5.691   5.187   7.263
12833SOL    HW140506   5.770   5.241   7.269
12833SOL    HW240507   5.694   5.131   7.340
12834SOL     OW40508   1.320   3.313   9.201
12834SOL    HW140509   1.297   3.369   9.127
12834SOL    HW240510   1.389   3.256   9.167
12835SOL     OW40511  10.766  10.063   1.712
12835SOL    HW140512  10.787  10.118   1.636
12835SOL    HW240513  10.851  10.039   1.748
12836SOL     OW40514   6.861   7.764   8.806
12836SOL    HW140515   6.825   7.851   8.822
12836SOL    HW240516   6.803   7.726   8.740
12837SOL     OW40517   9.741   9.565   4.432
12837SOL    HW140518   9.674   9.544   4.497
12837SOL    HW240519   9.734   9.495   4.367
12838SOL     OW40520   4.026   0.490  10.381
12838SOL    HW140521   4.006   0.565  10.325
12838SOL    HW240522   4.122   0.488  10.386
12839SOL     OW40523   9.892   3.216   6.284
12839SOL    HW140524   9.936   3.165   6.352
12839SOL    HW240525   9.821   3.159   6.254
12840SOL     OW40526   9.872   5.141   5.214
12840SOL    HW140527   9.897   5.182   5.131
12840SOL    HW240528   9.835   5.056   5.189
12841SOL     OW40529   3.963   2.707   1.309
12841SOL    HW140530   4.001   2.705   1.221
12841SOL    HW240531   3.901   2.634   1.310
12842SOL     OW40532   5.754   8.840   5.754
12842SOL    HW140533   5.703   8.872   5.827
12842SOL    HW240534   5.841   8.878   5.766
12843SOL     OW40535  11.059   9.363   4.120
12843SOL    HW140536  10.975   9.364   4.165
12843SOL    HW240537  11.037   9.346   4.028
12844SOL     OW40538   2.966   9.528  10.360
12844SOL    HW140539   3.041   9.497  10.411
12844SOL    HW240540   2.937   9.451  10.311
12845SOL     OW40541   0.502   8.595   6.620
12845SOL    HW140542   0.464   8.558   6.699
12845SOL    HW240543   0.466   8.541   6.549
12846SOL     OW40544   9.139   6.712   1.010
12846SOL    HW140545   9.188   6.629   1.014
12846SOL    HW240546   9.178   6.759   0.936
12847SOL     OW40547   2.611   5.076   5.474
12847SOL    HW140548   2.569   5.012   5.532
12847SOL    HW240549   2.670   5.125   5.531
12848SOL     OW40550   6.473   6.713   5.842
12848SOL    HW140551   6.514   6.798   5.829
12848SOL    HW240552   6.527   6.652   5.792
12849SOL     OW40553   4.229  10.910   3.278
12849SOL    HW140554   4.186  10.853   3.341
12849SOL    HW240555   4.261  10.984   3.329
12850SOL     OW40556   1.936   4.658   9.757
12850SOL    HW140557   2.012   4.614   9.796
12850SOL    HW240558   1.887   4.587   9.715
12851SOL     OW40559   7.148   7.564   7.410
12851SOL    HW140560   7.179   7.569   7.500
12851SOL    HW240561   7.227   7.547   7.358
12852SOL     OW40562   0.305   4.630   7.826
12852SOL    HW140563   0.241   4.692   7.792
12852SOL    HW240564   0.306   4.645   7.920
12853SOL     OW40565   5.726   9.782   6.349
12853SOL    HW140566   5.729   9.851   6.415
12853SOL    HW240567   5.721   9.828   6.265
12854SOL     OW40568   3.223   8.067   4.776
12854SOL    HW140569   3.134   8.075   4.809
12854SOL    HW240570   3.212   8.043   4.684
12855SOL     OW40571   7.400   1.235   6.253
12855SOL    HW140572   7.416   1.244   6.347
12855SOL    HW240573   7.326   1.293   6.235
12856SOL     OW40574   3.710  10.346   5.926
12856SOL    HW140575   3.696  10.254   5.901
12856SOL    HW240576   3.742  10.388   5.846
12857SOL     OW40577   3.204   1.598   2.613
12857SOL    HW140578   3.296   1.578   2.631
12857SOL    HW240579   3.157   1.519   2.640
12858SOL     OW40580   3.521   9.111   5.583
12858SOL    HW140581   3.563   9.177   5.528
12858SOL    HW240582   3.427   9.123   5.568
12859SOL     OW40583   1.062  10.253   8.868
12859SOL    HW140584   1.067  10.212   8.781
12859SOL    HW240585   1.117  10.331   8.861
12860SOL     OW40586   2.033   2.975   4.314
12860SOL    HW140587   2.104   3.012   4.366
12860SOL    HW240588   1.961   2.964   4.376
12861SOL     OW40589  10.113   7.538   1.087
12861SOL    HW140590  10.088   7.508   1.174
12861SOL    HW240591  10.131   7.457   1.038
12862SOL     OW40592   4.706   0.889   0.641
12862SOL    HW140593   4.696   0.960   0.577
12862SOL    HW240594   4.694   0.931   0.726
12863SOL     OW40595   3.262   5.246   6.985
12863SOL    HW140596   3.312   5.285   6.913
12863SOL    HW240597   3.217   5.171   6.945
12864SOL     OW40598   9.274   3.863   5.169
12864SOL    HW140599   9.184   3.876   5.138
12864SOL    HW240600   9.326   3.925   5.118
12865SOL     OW40601   9.620  10.630   9.223
12865SOL    HW140602   9.701  10.590   9.256
12865SOL    HW240603   9.642  10.659   9.134
12866SOL     OW40604   7.109   2.880   9.422
12866SOL    HW140605   7.101   2.859   9.329
12866SOL    HW240606   7.170   2.954   9.425
12867SOL     OW40607   2.359   2.626   7.901
12867SOL    HW140608   2.401   2.664   7.824
12867SOL    HW240609   2.267   2.616   7.876
12868SOL     OW40610   1.340   5.181   1.719
12868SOL    HW140611   1.314   5.239   1.790
12868SOL    HW240612   1.384   5.238   1.656
12869SOL     OW40613   5.565   9.295   4.592
12869SOL    HW140614   5.601   9.208   4.575
12869SOL    HW240615   5.599   9.319   4.678
12870SOL     OW40616   2.719  10.016   2.440
12870SOL    HW140617   2.699  10.066   2.361
12870SOL    HW240618   2.634  10.004   2.483
12871SOL     OW40619   6.181   1.241   2.375
12871SOL    HW140620   6.226   1.225   2.457
12871SOL    HW240621   6.111   1.302   2.397
12872SOL     OW40622   0.242   2.037   0.285
12872SOL    HW140623   0.326   2.067   0.318
12872SOL    HW240624   0.229   2.085   0.203
12873SOL     OW40625   3.216   6.155   5.539
12873SOL    HW140626   3.236   6.248   5.544
12873SOL    HW240627   3.161   6.137   5.615
12874SOL     OW40628   6.060   7.000   7.107
12874SOL    HW140629   6.034   7.059   7.177
12874SOL    HW240630   5.978   6.960   7.076
12875SOL     OW40631   2.451   1.906   7.789
12875SOL    HW140632   2.507   1.983   7.795
12875SOL    HW240633   2.367   1.939   7.757
12876SOL     OW40634   1.212   5.312   3.724
12876SOL    HW140635   1.147   5.243   3.711
12876SOL    HW240636   1.161   5.391   3.742
12877SOL     OW40637   3.733   7.120   8.972
12877SOL    HW140638   3.812   7.134   8.919
12877SOL    HW240639   3.706   7.030   8.951
12878SOL     OW40640   2.705   5.917   3.865
12878SOL    HW140641   2.687   5.899   3.772
12878SOL    HW240642   2.726   6.010   3.867
12879SOL     OW40643   3.779   8.944  10.214
12879SOL    HW140644   3.839   8.946  10.139
12879SOL    HW240645   3.702   8.897  10.181
12880SOL     OW40646   6.163   9.641   7.515
12880SOL    HW140647   6.130   9.708   7.575
12880SOL    HW240648   6.085   9.593   7.487
12881SOL     OW40649   3.004   6.912   7.393
12881SOL    HW140650   3.068   6.871   7.334
12881SOL    HW240651   3.008   7.005   7.371
12882SOL     OW40652   2.900   7.108   3.608
12882SOL    HW140653   2.849   7.135   3.532
12882SOL    HW240654   2.896   7.182   3.668
12883SOL     OW40655   8.898  11.093   9.104
12883SOL    HW140656   8.877  11.087   9.197
12883SOL    HW240657   8.991  11.072   9.099
12884SOL     OW40658   3.958   8.938   7.180
12884SOL    HW140659   3.869   8.961   7.154
12884SOL    HW240660   3.957   8.842   7.186
12885SOL     OW40661   4.897  10.844   1.969
12885SOL    HW140662   4.840  10.898   1.914
12885SOL    HW240663   4.946  10.790   1.906
12886SOL     OW40664   5.914   9.167   4.904
12886SOL    HW140665   5.917   9.089   4.960
12886SOL    HW240666   5.958   9.235   4.955
12887SOL     OW40667   0.797   3.929   2.956
12887SOL    HW140668   0.736   3.969   3.017
12887SOL    HW240669   0.762   3.950   2.869
12888SOL     OW40670   5.316   6.961   0.143
12888SOL    HW140671   5.363   6.884   0.175
12888SOL    HW240672   5.323   6.956   0.048
12889SOL     OW40673   9.110   6.353   3.218
12889SOL    HW140674   9.061   6.406   3.281
12889SOL    HW240675   9.063   6.365   3.135
12890SOL     OW40676   0.846   1.749   5.895
12890SOL    HW140677   0.863   1.737   5.988
12890SOL    HW240678   0.755   1.779   5.891
12891SOL     OW40679   0.175   9.929   9.000
12891SOL    HW140680   0.247   9.986   9.025
12891SOL    HW240681   0.189   9.848   9.049
12892SOL     OW40682   2.327   8.869   5.026
12892SOL    HW140683   2.316   8.788   4.975
12892SOL    HW240684   2.345   8.936   4.960
12893SOL     OW40685   0.851   8.198   0.862
12893SOL    HW140686   0.823   8.164   0.777
12893SOL    HW240687   0.824   8.290   0.861
12894SOL     OW40688   6.515   7.211  10.306
12894SOL    HW140689   6.603   7.229  10.340
12894SOL    HW240690   6.471   7.296  10.307
12895SOL     OW40691   3.234  10.708   3.765
12895SOL    HW140692   3.173  10.761   3.817
12895SOL    HW240693   3.179  10.666   3.699
12896SOL     OW40694   6.009   6.614   6.826
12896SOL    HW140695   6.031   6.656   6.743
12896SOL    HW240696   5.915   6.626   6.835
12897SOL     OW40697   1.316   3.399   4.051
12897SOL    HW140698   1.398   3.408   4.002
12897SOL    HW240699   1.271   3.326   4.009
12898SOL     OW40700   3.409   8.640   6.923
12898SOL    HW140701   3.401   8.689   6.841
12898SOL    HW240702   3.501   8.613   6.926
12899SOL     OW40703   0.665  10.260   7.779
12899SOL    HW140704   0.682  10.176   7.735
12899SOL    HW240705   0.571  10.274   7.769
12900SOL     OW40706   6.201   4.027   3.291
12900SOL    HW140707   6.114   4.057   3.316
12900SOL    HW240708   6.185   3.958   3.226
12901SOL     OW40709   7.772   7.950   6.376
12901SOL    HW140710   7.792   8.001   6.454
12901SOL    HW240711   7.691   7.904   6.397
12902SOL     OW40712   7.660  11.025   3.130
12902SOL    HW140713   7.755  11.021   3.117
12902SOL    HW240714   7.649  11.041   3.223
12903SOL     OW40715   3.217   2.594   6.288
12903SOL    HW140716   3.198   2.684   6.312
12903SOL    HW240717   3.167   2.580   6.207
12904SOL     OW40718   7.586   9.873  10.897
12904SOL    HW140719   7.623   9.869  10.985
12904SOL    HW240720   7.653   9.832  10.841
12905SOL     OW40721   5.781   1.921   7.244
12905SOL    HW140722   5.819   1.962   7.166
12905SOL    HW240723   5.788   1.987   7.312
12906SOL     OW40724   9.111   7.028   6.729
12906SOL    HW140725   9.086   7.054   6.640
12906SOL    HW240726   9.135   6.935   6.721
12907SOL     OW40727   6.371   9.058   6.390
12907SOL    HW140728   6.435   9.013   6.445
12907SOL    HW240729   6.294   9.068   6.445
12908SOL     OW40730   1.423  10.877   3.967
12908SOL    HW140731   1.479  10.873   4.044
12908SOL    HW240732   1.446  10.799   3.917
12909SOL     OW40733   3.705   9.531   5.322
12909SOL    HW140734   3.620   9.497   5.349
12909SOL    HW240735   3.738   9.465   5.261
12910SOL     OW40736   4.316   9.844   3.875
12910SOL    HW140737   4.333   9.751   3.860
12910SOL    HW240738   4.359   9.863   3.958
12911SOL     OW40739   1.615  10.421   5.658
12911SOL    HW140740   1.564  10.491   5.618
12911SOL    HW240741   1.619  10.444   5.750
12912SOL     OW40742   9.425   4.354   3.366
12912SOL    HW140743   9.349   4.399   3.403
12912SOL    HW240744   9.461   4.415   3.302
12913SOL     OW40745   3.601   3.121   1.165
12913SOL    HW140746   3.664   3.066   1.117
12913SOL    HW240747   3.588   3.075   1.248
12914SOL     OW40748   2.711  10.275   5.781
12914SOL    HW140749   2.646  10.308   5.719
12914SOL    HW240750   2.748  10.353   5.821
12915SOL     OW40751   4.169   5.721   5.205
12915SOL    HW140752   4.111   5.710   5.129
12915SOL    HW240753   4.125   5.673   5.275
12916SOL     OW40754  10.448   8.520   1.908
12916SOL    HW140755  10.517   8.580   1.879
12916SOL    HW240756  10.405   8.492   1.827
12917SOL     OW40757   0.901  11.094   2.404
12917SOL    HW140758   0.822  11.138   2.436
12917SOL    HW240759   0.872  11.007   2.379
12918SOL     OW40760   4.610   0.769  10.975
12918SOL    HW140761   4.523   0.742  11.005
12918SOL    HW240762   4.609   0.864  10.980
12919SOL     OW40763   9.722   9.812   2.975
12919SOL    HW140764   9.659   9.882   2.990
12919SOL    HW240765   9.758   9.793   3.061
12920SOL     OW40766   1.999   6.672   2.620
12920SOL    HW140767   2.076   6.722   2.594
12920SOL    HW240768   1.946   6.734   2.670
12921SOL     OW40769   3.082   9.595   6.841
12921SOL    HW140770   3.071   9.544   6.760
12921SOL    HW240771   3.059   9.684   6.816
12922SOL     OW40772   4.715   9.817   1.619
12922SOL    HW140773   4.668   9.855   1.693
12922SOL    HW240774   4.778   9.884   1.593
12923SOL     OW40775   1.164  10.385   2.557
12923SOL    HW140776   1.088  10.420   2.603
12923SOL    HW240777   1.148  10.405   2.465
12924SOL     OW40778   4.439   2.730   2.793
12924SOL    HW140779   4.505   2.792   2.761
12924SOL    HW240780   4.463   2.715   2.884
12925SOL     OW40781   1.694  10.945   5.328
12925SOL    HW140782   1.684  11.034   5.361
12925SOL    HW240783   1.747  10.900   5.394
12926SOL     OW40784   6.321   9.035   7.154
12926SOL    HW140785   6.401   9.032   7.102
12926SOL    HW240786   6.313   9.126   7.182
12927SOL     OW40787   6.072   7.436   3.464
12927SOL    HW140788   6.034   7.518   3.434
12927SOL    HW240789   6.025   7.369   3.414
12928SOL     OW40790   3.734   0.343  10.779
12928SOL    HW140791   3.729   0.386  10.864
12928SOL    HW240792   3.650   0.299  10.769
12929SOL     OW40793   2.676   9.541   7.297
12929SOL    HW140794   2.707   9.549   7.206
12929SOL    HW240795   2.593   9.493   7.290
12930SOL     OW40796   6.692   8.447   6.114
12930SOL    HW140797   6.706   8.411   6.201
12930SOL    HW240798   6.740   8.387   6.056
12931SOL     OW40799   1.838   0.608   9.742
12931SOL    HW140800   1.914   0.610   9.801
12931SOL    HW240801   1.870   0.647   9.660
12932SOL     OW40802   1.855   0.588   2.543
12932SOL    HW140803   1.854   0.509   2.597
12932SOL    HW240804   1.948   0.608   2.533
12933SOL     OW40805   1.594   3.154   8.603
12933SOL    HW140806   1.566   3.067   8.575
12933SOL    HW240807   1.533   3.177   8.672
12934SOL     OW40808   4.293   1.763   6.462
12934SOL    HW140809   4.268   1.842   6.415
12934SOL    HW240810   4.274   1.692   6.400
12935SOL     OW40811   3.033   3.518   4.939
12935SOL    HW140812   3.111   3.499   4.887
12935SOL    HW240813   2.996   3.432   4.959
12936SOL     OW40814   5.929   4.706   8.721
12936SOL    HW140815   5.887   4.621   8.706
12936SOL    HW240816   5.894   4.763   8.652
12937SOL     OW40817   2.691  10.860  10.773
12937SOL    HW140818   2.688  10.886  10.681
12937SOL    HW240819   2.702  10.942  10.821
12938SOL     OW40820   8.826   2.902   6.619
12938SOL    HW140821   8.741   2.943   6.605
12938SOL    HW240822   8.881   2.971   6.656
12939SOL     OW40823   2.883   8.065   5.182
12939SOL    HW140824   2.810   8.119   5.212
12939SOL    HW240825   2.862   7.977   5.213
12940SOL     OW40826   0.358   7.263  11.026
12940SOL    HW140827   0.352   7.323  11.100
12940SOL    HW240828   0.327   7.313  10.951
12941SOL     OW40829   5.394   7.085  10.737
12941SOL    HW140830   5.383   7.176  10.710
12941SOL    HW240831   5.414   7.038  10.655
12942SOL     OW40832   3.765   5.777  11.082
12942SOL    HW140833   3.706   5.833  11.133
12942SOL    HW240834   3.844   5.770  11.135
12943SOL     OW40835   4.868   6.459   7.694
12943SOL    HW140836   4.951   6.491   7.659
12943SOL    HW240837   4.830   6.534   7.739
12944SOL     OW40838   8.290   6.225   3.032
12944SOL    HW140839   8.380   6.247   3.056
12944SOL    HW240840   8.288   6.129   3.033
12945SOL     OW40841   3.017   2.938   2.174
12945SOL    HW140842   3.014   2.926   2.079
12945SOL    HW240843   3.110   2.953   2.193
12946SOL     OW40844  10.014  10.694   7.676
12946SOL    HW140845  10.028  10.717   7.584
12946SOL    HW240846  10.092  10.643   7.700
12947SOL     OW40847   9.080   2.909   8.308
12947SOL    HW140848   8.987   2.931   8.309
12947SOL    HW240849   9.099   2.889   8.216
12948SOL     OW40850   2.988   6.950   3.173
12948SOL    HW140851   2.953   6.916   3.255
12948SOL    HW240852   3.062   7.005   3.198
12949SOL     OW40853   2.654   9.106   7.707
12949SOL    HW140854   2.587   9.128   7.771
12949SOL    HW240855   2.643   9.012   7.691
12950SOL     OW40856   8.116   5.832   9.733
12950SOL    HW140857   8.044   5.891   9.754
12950SOL    HW240858   8.178   5.886   9.684
12951SOL     OW40859   1.142   0.786   7.737
12951SOL    HW140860   1.237   0.785   7.729
12951SOL    HW240861   1.122   0.714   7.797
12952SOL     OW40862   7.406  10.929   5.630
12952SOL    HW140863   7.386  10.976   5.549
12952SOL    HW240864   7.379  10.988   5.700
12953SOL     OW40865   5.904  10.086   5.369
12953SOL    HW140866   5.942   9.998   5.370
12953SOL    HW240867   5.962  10.136   5.312
12954SOL     OW40868   4.274   6.110   4.568
12954SOL    HW140869   4.196   6.077   4.613
12954SOL    HW240870   4.272   6.204   4.582
12955SOL     OW40871   2.199   3.061   2.155
12955SOL    HW140872   2.260   2.990   2.132
12955SOL    HW240873   2.253   3.140   2.154
12956SOL     OW40874   3.988   9.409   3.365
12956SOL    HW140875   4.068   9.425   3.314
12956SOL    HW240876   3.918   9.405   3.299
12957SOL     OW40877   2.774   0.003   6.224
12957SOL    HW140878   2.695  -0.000   6.278
12957SOL    HW240879   2.840   0.044   6.279
12958SOL     OW40880   8.731  10.186  10.097
12958SOL    HW140881   8.663  10.131  10.135
12958SOL    HW240882   8.728  10.267  10.147
12959SOL     OW40883   0.460   1.435   6.708
12959SOL    HW140884   0.480   1.507   6.767
12959SOL    HW240885   0.390   1.468   6.652
12960SOL     OW40886  10.572   0.735   7.618
12960SOL    HW140887  10.554   0.659   7.674
12960SOL    HW240888  10.571   0.810   7.677
12961SOL     OW40889   1.696   8.627   3.823
12961SOL    HW140890   1.776   8.594   3.782
12961SOL    HW240891   1.626   8.602   3.763
12962SOL     OW40892   3.230   7.025   8.999
12962SOL    HW140893   3.242   7.038   8.905
12962SOL    HW240894   3.293   6.957   9.022
12963SOL     OW40895   3.997   1.603   4.763
12963SOL    HW140896   4.075   1.657   4.755
12963SOL    HW240897   3.946   1.623   4.684
12964SOL     OW40898   3.309   4.541   2.087
12964SOL    HW140899   3.342   4.559   1.999
12964SOL    HW240900   3.362   4.597   2.144
12965SOL     OW40901   3.313   6.141   4.136
12965SOL    HW140902   3.386   6.100   4.182
12965SOL    HW240903   3.274   6.070   4.085
12966SOL     OW40904  10.459   6.008   4.468
12966SOL    HW140905  10.469   5.913   4.473
12966SOL    HW240906  10.549   6.041   4.471
12967SOL     OW40907   3.516   0.017   6.402
12967SOL    HW140908   3.544  -0.049   6.338
12967SOL    HW240909   3.588   0.020   6.465
12968SOL     OW40910   0.815   0.032   4.514
12968SOL    HW140911   0.733  -0.017   4.522
12968SOL    HW240912   0.883  -0.036   4.509
12969SOL     OW40913   4.646   6.945   1.027
12969SOL    HW140914   4.605   6.973   1.109
12969SOL    HW240915   4.573   6.932   0.966
12970SOL     OW40916   3.343   0.884   9.050
12970SOL    HW140917   3.267   0.941   9.043
12970SOL    HW240918   3.368   0.867   8.959
12971SOL     OW40919   8.376   9.906   4.882
12971SOL    HW140920   8.398   9.984   4.831
12971SOL    HW240921   8.361   9.938   4.970
12972SOL     OW40922   8.569   3.337   3.499
12972SOL    HW140923   8.579   3.419   3.451
12972SOL    HW240924   8.591   3.359   3.589
12973SOL     OW40925   5.087   5.084   0.194
12973SOL    HW140926   5.115   5.097   0.104
12973SOL    HW240927   5.111   5.165   0.239
12974SOL     OW40928   0.315  10.336   4.318
12974SOL    HW140929   0.368  10.295   4.386
12974SOL    HW240930   0.226  10.334   4.353
12975SOL     OW40931   5.487   1.236   1.252
12975SOL    HW140932   5.529   1.172   1.194
12975SOL    HW240933   5.530   1.223   1.336
12976SOL     OW40934   3.610   7.718   1.193
12976SOL    HW140935   3.514   7.719   1.191
12976SOL    HW240936   3.634   7.794   1.246
12977SOL     OW40937   2.489   3.622   7.002
12977SOL    HW140938   2.496   3.690   7.069
12977SOL    HW240939   2.475   3.670   6.920
12978SOL     OW40940   0.546   5.203   3.633
12978SOL    HW140941   0.462   5.180   3.592
12978SOL    HW240942   0.563   5.293   3.606
12979SOL     OW40943   1.247   0.653   3.601
12979SOL    HW140944   1.225   0.602   3.523
12979SOL    HW240945   1.170   0.644   3.657
12980SOL     OW40946   2.546   8.182   4.287
12980SOL    HW140947   2.613   8.247   4.268
12980SOL    HW240948   2.477   8.199   4.223
12981SOL     OW40949   6.534   1.697   7.323
12981SOL    HW140950   6.490   1.738   7.397
12981SOL    HW240951   6.469   1.636   7.287
12982SOL     OW40952   2.672   9.773   6.673
12982SOL    HW140953   2.742   9.822   6.716
12982SOL    HW240954   2.690   9.783   6.579
12983SOL     OW40955  10.223   8.808   9.231
12983SOL    HW140956  10.261   8.895   9.233
12983SOL    HW240957  10.246   8.774   9.144
12984SOL     OW40958   6.146   8.641   5.816
12984SOL    HW140959   6.233   8.674   5.839
12984SOL    HW240960   6.147   8.636   5.720
12985SOL     OW40961  10.019   5.827   1.498
12985SOL    HW140962   9.965   5.899   1.465
12985SOL    HW240963  10.046   5.855   1.585
12986SOL     OW40964   3.142   3.320   3.980
12986SOL    HW140965   3.071   3.256   3.975
12986SOL    HW240966   3.110   3.396   3.931
12987SOL     OW40967   4.040   7.262   2.667
12987SOL    HW140968   4.028   7.320   2.592
12987SOL    HW240969   3.957   7.216   2.675
12988SOL     OW40970   9.997   3.313   0.877
12988SOL    HW140971  10.068   3.249   0.886
12988SOL    HW240972   9.940   3.296   0.951
12989SOL     OW40973   6.937   0.804   6.034
12989SOL    HW140974   6.902   0.735   5.977
12989SOL    HW240975   6.992   0.857   5.976
12990SOL     OW40976   3.239  10.389   4.632
12990SOL    HW140977   3.275  10.300   4.632
12990SOL    HW240978   3.269  10.427   4.714
12991SOL     OW40979   2.043   9.647   8.063
12991SOL    HW140980   2.129   9.688   8.070
12991SOL    HW240981   2.053   9.584   7.991
12992SOL     OW40982   3.488   9.835   2.795
12992SOL    HW140983   3.491   9.912   2.852
12992SOL    HW240984   3.534   9.767   2.844
12993SOL     OW40985   2.840   5.973  10.458
12993SOL    HW140986   2.889   5.923  10.523
12993SOL    HW240987   2.870   5.938  10.374
12994SOL     OW40988   5.333   7.268   4.124
12994SOL    HW140989   5.287   7.199   4.075
12994SOL    HW240990   5.327   7.345   4.068
12995SOL     OW40991   9.365   1.925   0.051
12995SOL    HW140992   9.305   1.850   0.042
12995SOL    HW240993   9.315   1.990   0.100
12996SOL     OW40994   4.198   8.477   6.879
12996SOL    HW140995   4.251   8.448   6.805
12996SOL    HW240996   4.220   8.416   6.949
12997SOL     OW40997   2.021   5.756   8.782
12997SOL    HW140998   2.107   5.796   8.770
12997SOL    HW240999   2.039   5.675   8.830
12998SOL     OW41000   5.037   3.073   3.763
12998SOL    HW141001   5.122   3.029   3.774
12998SOL    HW241002   4.996   3.069   3.849
12999SOL     OW41003   2.785   6.301  10.017
12999SOL    HW141004   2.827   6.215  10.017
12999SOL    HW241005   2.716   6.294  10.083
13000SOL     OW41006   4.609   3.966   6.731
13000SOL    HW141007   4.696   3.925   6.734
13000SOL    HW241008   4.553   3.906   6.780
13001SOL     OW41009   8.062   7.718   8.981
13001SOL    HW141010   8.127   7.651   8.957
13001SOL    HW241011   7.982   7.668   8.998
13002SOL     OW41012   8.475   0.179   6.711
13002SOL    HW141013   8.449   0.163   6.802
13002SOL    HW241014   8.537   0.108   6.691
13003SOL     OW41015   3.055  10.390   5.061
13003SOL    HW141016   3.006  10.323   5.109
13003SOL    HW241017   3.111  10.340   5.000
13004SOL     OW41018   2.910   4.337   4.045
13004SOL    HW141019   2.967   4.398   4.091
13004SOL    HW241020   2.893   4.378   3.960
13005SOL     OW41021   0.496   6.879   7.894
13005SOL    HW141022   0.456   6.802   7.853
13005SOL    HW241023   0.492   6.862   7.988
13006SOL     OW41024   6.803  10.554   4.878
13006SOL    HW141025   6.764  10.624   4.930
13006SOL    HW241026   6.758  10.560   4.793
13007SOL     OW41027   5.873   8.550   2.498
13007SOL    HW141028   5.878   8.642   2.522
13007SOL    HW241029   5.837   8.507   2.575
13008SOL     OW41030   2.043   7.117   1.086
13008SOL    HW141031   2.086   7.199   1.108
13008SOL    HW241032   1.964   7.143   1.039
13009SOL     OW41033   1.912   2.054   4.299
13009SOL    HW141034   1.851   2.079   4.230
13009SOL    HW241035   1.881   1.968   4.328
13010SOL     OW41036   5.832   3.272   7.956
13010SOL    HW141037   5.784   3.354   7.962
13010SOL    HW241038   5.852   3.248   8.046
13011SOL     OW41039   4.078   6.737   1.516
13011SOL    HW141040   3.985   6.722   1.535
13011SOL    HW241041   4.082   6.828   1.488
13012SOL     OW41042   2.131   0.814   7.684
13012SOL    HW141043   2.177   0.857   7.756
13012SOL    HW241044   2.123   0.881   7.616
13013SOL     OW41045   3.422   7.098  10.954
13013SOL    HW141046   3.345   7.042  10.967
13013SOL    HW241047   3.483   7.072  11.023
13014SOL     OW41048   9.259   6.652   3.893
13014SOL    HW141049   9.298   6.736   3.868
13014SOL    HW241050   9.174   6.675   3.931
13015SOL     OW41051   4.662   4.942   8.884
13015SOL    HW141052   4.717   5.016   8.908
13015SOL    HW241053   4.665   4.884   8.960
13016SOL     OW41054   3.489   5.634   1.282
13016SOL    HW141055   3.467   5.602   1.194
13016SOL    HW241056   3.404   5.646   1.325
13017SOL     OW41057   8.241   6.892   2.921
13017SOL    HW141058   8.271   6.813   2.876
13017SOL    HW241059   8.148   6.876   2.939
13018SOL     OW41060   9.968   3.822   6.981
13018SOL    HW141061   9.977   3.734   7.019
13018SOL    HW241062  10.026   3.820   6.904
13019SOL     OW41063   3.317   9.981   2.600
13019SOL    HW141064   3.303  10.030   2.681
13019SOL    HW241065   3.377   9.910   2.624
13020SOL     OW41066  10.354   9.254   6.717
13020SOL    HW141067  10.329   9.172   6.759
13020SOL    HW241068  10.372   9.314   6.789
13021SOL     OW41069  10.138   9.926   5.600
13021SOL    HW141070  10.063   9.869   5.615
13021SOL    HW241071  10.138   9.986   5.674
13022SOL     OW41072   9.763   8.408   7.936
13022SOL    HW141073   9.687   8.465   7.926
13022SOL    HW241074   9.738   8.326   7.893
13023SOL     OW41075   7.825   2.614   3.200
13023SOL    HW141076   7.831   2.518   3.198
13023SOL    HW241077   7.792   2.638   3.113
13024SOL     OW41078   4.281   0.428   3.143
13024SOL    HW141079   4.209   0.381   3.185
13024SOL    HW241080   4.294   0.382   3.059
13025SOL     OW41081   0.662   1.828   7.289
13025SOL    HW141082   0.658   1.890   7.362
13025SOL    HW241083   0.743   1.779   7.303
13026SOL     OW41084   6.300   7.468   1.118
13026SOL    HW141085   6.348   7.418   1.184
13026SOL    HW241086   6.216   7.487   1.159
13027SOL     OW41087   9.784   4.993   2.468
13027SOL    HW141088   9.696   4.960   2.450
13027SOL    HW241089   9.832   4.977   2.386
13028SOL     OW41090   6.693   9.510   4.986
13028SOL    HW141091   6.728   9.452   5.053
13028SOL    HW241092   6.612   9.543   5.023
13029SOL     OW41093   5.201   9.486   9.608
13029SOL    HW141094   5.126   9.500   9.551
13029SOL    HW241095   5.276   9.519   9.558
13030SOL     OW41096   3.608   9.956   5.375
13030SOL    HW141097   3.516   9.954   5.349
13030SOL    HW241098   3.653   9.906   5.307
13031SOL     OW41099   0.083   6.219   2.313
13031SOL    HW141100   0.158   6.205   2.370
13031SOL    HW241101   0.091   6.151   2.246
13032SOL     OW41102   0.293   5.105   3.542
13032SOL    HW141103   0.212   5.147   3.512
13032SOL    HW241104   0.341   5.085   3.461
13033SOL     OW41105   7.801   0.151   9.264
13033SOL    HW141106   7.724   0.190   9.223
13033SOL    HW241107   7.825   0.212   9.334
13034SOL     OW41108   3.118   3.524   2.228
13034SOL    HW141109   3.100   3.513   2.321
13034SOL    HW241110   3.183   3.456   2.208
13035SOL     OW41111   4.703   3.036   5.377
13035SOL    HW141112   4.653   2.999   5.449
13035SOL    HW241113   4.672   3.126   5.369
13036SOL     OW41114   3.641   7.016   4.832
13036SOL    HW141115   3.711   6.958   4.802
13036SOL    HW241116   3.655   7.023   4.926
13037SOL     OW41117   0.716   8.566  11.078
13037SOL    HW141118   0.731   8.471  11.075
13037SOL    HW241119   0.710   8.591  10.986
13038SOL     OW41120   1.586   0.449   8.866
13038SOL    HW141121   1.614   0.468   8.955
13038SOL    HW241122   1.657   0.396   8.829
13039SOL     OW41123   5.926   4.737   9.176
13039SOL    HW141124   5.898   4.713   9.087
13039SOL    HW241125   6.002   4.794   9.163
13040SOL     OW41126   5.428   6.464   7.697
13040SOL    HW141127   5.384   6.439   7.778
13040SOL    HW241128   5.357   6.489   7.638
13041SOL     OW41129  10.735   7.713   5.711
13041SOL    HW141130  10.651   7.758   5.708
13041SOL    HW241131  10.797   7.775   5.673
13042SOL     OW41132   8.890   5.133   0.474
13042SOL    HW141133   8.953   5.128   0.402
13042SOL    HW241134   8.869   5.041   0.493
13043SOL     OW41135   6.873   6.612   3.773
13043SOL    HW141136   6.955   6.569   3.749
13043SOL    HW241137   6.898   6.677   3.838
13044SOL     OW41138   0.706   5.092   4.754
13044SOL    HW141139   0.709   5.041   4.835
13044SOL    HW241140   0.796   5.123   4.742
13045SOL     OW41141   6.068   9.951   1.921
13045SOL    HW141142   6.062  10.015   1.850
13045SOL    HW241143   6.017   9.876   1.889
13046SOL     OW41144   5.721   0.142   7.281
13046SOL    HW141145   5.636   0.148   7.238
13046SOL    HW241146   5.765   0.224   7.260
13047SOL     OW41147   2.023   6.730   5.702
13047SOL    HW141148   1.958   6.685   5.756
13047SOL    HW241149   2.042   6.667   5.632
13048SOL     OW41150   4.116   6.316  10.459
13048SOL    HW141151   4.093   6.368  10.382
13048SOL    HW241152   4.185   6.257  10.428
13049SOL     OW41153   4.507   7.746   9.732
13049SOL    HW141154   4.579   7.808   9.718
13049SOL    HW241155   4.551   7.662   9.750
13050SOL     OW41156   6.769   3.671  10.859
13050SOL    HW141157   6.746   3.589  10.815
13050SOL    HW241158   6.762   3.651  10.952
13051SOL     OW41159   2.830   2.416   8.483
13051SOL    HW141160   2.890   2.486   8.458
13051SOL    HW241161   2.866   2.338   8.439
13052SOL     OW41162   2.728   2.647   1.114
13052SOL    HW141163   2.667   2.694   1.057
13052SOL    HW241164   2.673   2.585   1.162
13053SOL     OW41165   7.039   4.455   1.287
13053SOL    HW141166   7.045   4.466   1.382
13053SOL    HW241167   7.095   4.524   1.251
13054SOL     OW41168   2.619   7.304   3.533
13054SOL    HW141169   2.604   7.209   3.541
13054SOL    HW241170   2.696   7.311   3.477
13055SOL     OW41171   1.945   5.529   9.705
13055SOL    HW141172   1.957   5.550   9.797
13055SOL    HW241173   1.902   5.606   9.667
13056SOL     OW41174   0.086   0.845   2.459
13056SOL    HW141175   0.136   0.795   2.395
13056SOL    HW241176   0.148   0.863   2.529
13057SOL     OW41177   8.840   2.165   3.582
13057SOL    HW141178   8.773   2.233   3.592
13057SOL    HW241179   8.856   2.134   3.671
13058SOL     OW41180   4.664   6.955   3.580
13058SOL    HW141181   4.738   6.934   3.523
13058SOL    HW241182   4.614   6.873   3.585
13059SOL     OW41183   3.660   4.598   8.003
13059SOL    HW141184   3.677   4.571   7.912
13059SOL    HW241185   3.576   4.642   7.999
13060SOL     OW41186   5.410   5.382   9.830
13060SOL    HW141187   5.340   5.368   9.766
13060SOL    HW241188   5.489   5.391   9.777
13061SOL     OW41189   9.811   6.641  10.185
13061SOL    HW141190   9.808   6.615  10.093
13061SOL    HW241191   9.732   6.603  10.223
13062SOL     OW41192   4.030   7.415   5.117
13062SOL    HW141193   4.116   7.455   5.101
13062SOL    HW241194   3.996   7.461   5.193
13063SOL     OW41195   0.996   8.273   0.563
13063SOL    HW141196   1.072   8.330   0.569
13063SOL    HW241197   0.931   8.312   0.621
13064SOL     OW41198   9.443   3.104   4.832
13064SOL    HW141199   9.464   3.097   4.739
13064SOL    HW241200   9.352   3.132   4.834
13065SOL     OW41201   9.695   9.348   7.092
13065SOL    HW141202   9.634   9.277   7.114
13065SOL    HW241203   9.781   9.314   7.117
13066SOL     OW41204   1.209   8.760   3.174
13066SOL    HW141205   1.173   8.820   3.109
13066SOL    HW241206   1.149   8.685   3.173
13067SOL     OW41207   2.006   0.064   8.115
13067SOL    HW141208   1.998   0.092   8.024
13067SOL    HW241209   1.988   0.143   8.166
13068SOL     OW41210   1.709   8.042   7.177
13068SOL    HW141211   1.745   8.119   7.133
13068SOL    HW241212   1.695   8.070   7.267
13069SOL     OW41213   2.734   4.712   9.232
13069SOL    HW141214   2.720   4.803   9.258
13069SOL    HW241215   2.828   4.706   9.214
13070SOL     OW41216   1.695   5.095   9.702
13070SOL    HW141217   1.693   5.075   9.795
13070SOL    HW241218   1.751   5.172   9.695
13071SOL     OW41219   2.367   3.796   3.245
13071SOL    HW141220   2.461   3.811   3.249
13071SOL    HW241221   2.328   3.873   3.287
13072SOL     OW41222   2.383   7.094   6.082
13072SOL    HW141223   2.394   7.010   6.036
13072SOL    HW241224   2.424   7.080   6.167
13073SOL     OW41225   2.285   9.255   1.143
13073SOL    HW141226   2.314   9.284   1.056
13073SOL    HW241227   2.362   9.266   1.198
13074SOL     OW41228   4.823   9.707   0.058
13074SOL    HW141229   4.789   9.700   0.147
13074SOL    HW241230   4.906   9.753   0.068
13075SOL     OW41231   8.559   9.483   2.662
13075SOL    HW141232   8.638   9.537   2.657
13075SOL    HW241233   8.507   9.509   2.586
13076SOL     OW41234   4.240  10.016   1.186
13076SOL    HW141235   4.202  10.097   1.218
13076SOL    HW241236   4.178   9.948   1.214
13077SOL     OW41237   0.182   8.584   8.888
13077SOL    HW141238   0.110   8.637   8.854
13077SOL    HW241239   0.180   8.598   8.982
13078SOL     OW41240   4.216   8.860   6.709
13078SOL    HW141241   4.256   8.779   6.676
13078SOL    HW241242   4.122   8.844   6.702
13079SOL     OW41243   5.196   1.198   3.393
13079SOL    HW141244   5.121   1.257   3.387
13079SOL    HW241245   5.174   1.137   3.464
13080SOL     OW41246   5.101   7.263   4.644
13080SOL    HW141247   5.124   7.336   4.700
13080SOL    HW241248   5.107   7.186   4.700
13081SOL     OW41249  10.040   9.070   8.679
13081SOL    HW141250   9.982   9.141   8.652
13081SOL    HW241251   9.983   8.993   8.685
13082SOL     OW41252  10.507   8.477   6.440
13082SOL    HW141253  10.473   8.392   6.411
13082SOL    HW241254  10.584   8.455   6.493
13083SOL     OW41255   4.704   4.190  10.372
13083SOL    HW141256   4.750   4.230  10.297
13083SOL    HW241257   4.747   4.105  10.383
13084SOL     OW41258   0.286   1.665   5.922
13084SOL    HW141259   0.198   1.655   5.959
13084SOL    HW241260   0.273   1.722   5.846
13085SOL     OW41261   8.845   6.425   4.942
13085SOL    HW141262   8.927   6.472   4.926
13085SOL    HW241263   8.870   6.352   4.999
13086SOL     OW41264   5.649   1.910   8.672
13086SOL    HW141265   5.572   1.862   8.702
13086SOL    HW241266   5.708   1.842   8.640
13087SOL     OW41267   4.199   2.237   3.568
13087SOL    HW141268   4.186   2.330   3.582
13087SOL    HW241269   4.169   2.196   3.649
13088SOL     OW41270   2.836   8.966   2.499
13088SOL    HW141271   2.890   9.034   2.539
13088SOL    HW241272   2.893   8.927   2.432
13089SOL     OW41273   2.661   4.692   3.171
13089SOL    HW141274   2.631   4.774   3.210
13089SOL    HW241275   2.651   4.705   3.076
13090SOL     OW41276   1.810   8.443   5.553
13090SOL    HW141277   1.750   8.487   5.493
13090SOL    HW241278   1.869   8.511   5.584
13091SOL     OW41279   4.997   9.730  10.501
13091SOL    HW141280   5.015   9.721  10.594
13091SOL    HW241281   5.047   9.659  10.460
13092SOL     OW41282   8.419   4.796   7.549
13092SOL    HW141283   8.376   4.878   7.570
13092SOL    HW241284   8.510   4.809   7.576
13093SOL     OW41285   3.202   7.281   4.922
13093SOL    HW141286   3.137   7.218   4.954
13093SOL    HW241287   3.285   7.233   4.925
13094SOL     OW41288   8.425   5.497  10.725
13094SOL    HW141289   8.395   5.487  10.815
13094SOL    HW241290   8.510   5.453  10.723
13095SOL     OW41291   2.938   8.055   6.819
13095SOL    HW141292   3.013   8.106   6.787
13095SOL    HW241293   2.974   8.001   6.889
13096SOL     OW41294   0.917   3.742   5.136
13096SOL    HW141295   0.976   3.768   5.206
13096SOL    HW241296   0.972   3.741   5.057
13097SOL     OW41297   0.492   6.502   0.528
13097SOL    HW141298   0.418   6.514   0.587
13097SOL    HW241299   0.528   6.590   0.515
13098SOL     OW41300   4.784   4.062   4.429
13098SOL    HW141301   4.872   4.078   4.394
13098SOL    HW241302   4.769   4.134   4.490
13099SOL     OW41303   4.076   7.258   4.459
13099SOL    HW141304   4.132   7.256   4.536
13099SOL    HW241305   3.988   7.273   4.493
13100SOL     OW41306   6.427   0.986   5.554
13100SOL    HW141307   6.489   1.042   5.507
13100SOL    HW241308   6.463   0.898   5.546
13101SOL     OW41309  11.061   1.800   1.936
13101SOL    HW141310  11.140   1.800   1.881
13101SOL    HW241311  11.008   1.871   1.902
13102SOL     OW41312   0.804   9.208   6.301
13102SOL    HW141313   0.743   9.248   6.362
13102SOL    HW241314   0.874   9.172   6.356
13103SOL     OW41315   1.224   6.182   4.803
13103SOL    HW141316   1.232   6.138   4.887
13103SOL    HW241317   1.276   6.262   4.812
13104SOL     OW41318   3.561   8.380   6.737
13104SOL    HW141319   3.599   8.453   6.786
13104SOL    HW241320   3.470   8.405   6.722
13105SOL     OW41321   2.073   8.797   4.737
13105SOL    HW141322   2.158   8.759   4.760
13105SOL    HW241323   2.009   8.731   4.764
13106SOL     OW41324   6.504   7.741   9.539
13106SOL    HW141325   6.535   7.661   9.581
13106SOL    HW241326   6.411   7.725   9.524
13107SOL     OW41327   4.258   9.267   4.708
13107SOL    HW141328   4.257   9.195   4.771
13107SOL    HW241329   4.185   9.323   4.734
13108SOL     OW41330   4.833   8.531   4.992
13108SOL    HW141331   4.798   8.590   4.925
13108SOL    HW241332   4.885   8.587   5.049
13109SOL     OW41333   2.152   4.531   9.888
13109SOL    HW141334   2.243   4.503   9.893
13109SOL    HW241335   2.108   4.482   9.957
13110SOL     OW41336   4.147   8.372   4.439
13110SOL    HW141337   4.203   8.431   4.488
13110SOL    HW241338   4.138   8.295   4.495
13111SOL     OW41339   4.304  10.029  10.256
13111SOL    HW141340   4.222  10.039  10.304
13111SOL    HW241341   4.289  10.074  10.173
13112SOL     OW41342   5.895   4.056   9.346
13112SOL    HW141343   5.938   4.100   9.273
13112SOL    HW241344   5.857   4.126   9.398
13113SOL     OW41345   4.803   8.160   0.196
13113SOL    HW141346   4.776   8.074   0.163
13113SOL    HW241347   4.727   8.192   0.244
13114SOL     OW41348   2.371   7.174   2.879
13114SOL    HW141349   2.426   7.250   2.896
13114SOL    HW241350   2.325   7.159   2.961
13115SOL     OW41351   1.098   6.683   9.756
13115SOL    HW141352   1.100   6.587   9.757
13115SOL    HW241353   1.040   6.705   9.683
13116SOL     OW41354   3.322  10.155  10.987
13116SOL    HW141355   3.336  10.076  11.039
13116SOL    HW241356   3.405  10.203  10.993
13117SOL     OW41357   4.862  10.138   7.958
13117SOL    HW141358   4.932  10.123   8.021
13117SOL    HW241359   4.907  10.165   7.878
13118SOL     OW41360   9.700   0.522   0.312
13118SOL    HW141361   9.739   0.540   0.397
13118SOL    HW241362   9.740   0.439   0.284
13119SOL     OW41363   8.658   8.122   4.199
13119SOL    HW141364   8.633   8.214   4.205
13119SOL    HW241365   8.739   8.115   4.250
13120SOL     OW41366   3.151   5.435   5.410
13120SOL    HW141367   3.171   5.476   5.494
13120SOL    HW241368   3.237   5.416   5.372
13121SOL     OW41369   3.823   7.215   4.553
13121SOL    HW141370   3.860   7.183   4.635
13121SOL    HW241371   3.764   7.145   4.525
13122SOL     OW41372   7.615   7.497   1.729
13122SOL    HW141373   7.684   7.533   1.673
13122SOL    HW241374   7.590   7.569   1.786
13123SOL     OW41375   1.415   8.157   3.744
13123SOL    HW141376   1.350   8.221   3.716
13123SOL    HW241377   1.499   8.202   3.736
13124SOL     OW41378   2.787   8.290   7.399
13124SOL    HW141379   2.796   8.233   7.322
13124SOL    HW241380   2.794   8.231   7.474
13125SOL     OW41381  10.841  10.124   4.363
13125SOL    HW141382  10.863  10.094   4.451
13125SOL    HW241383  10.783  10.199   4.376
13126SOL     OW41384   2.419   0.437  10.612
13126SOL    HW141385   2.363   0.423  10.535
13126SOL    HW241386   2.389   0.372  10.676
13127SOL     OW41387   3.803   6.461   5.320
13127SOL    HW141388   3.866   6.515   5.368
13127SOL    HW241389   3.718   6.483   5.358
13128SOL     OW41390   0.221  10.358   5.441
13128SOL    HW141391   0.130  10.332   5.459
13128SOL    HW241392   0.243  10.419   5.511
13129SOL     OW41393   6.267  10.546   7.171
13129SOL    HW141394   6.363  10.549   7.177
13129SOL    HW241395   6.248  10.455   7.149
13130SOL     OW41396   3.797   6.337  11.092
13130SOL    HW141397   3.786   6.426  11.059
13130SOL    HW241398   3.844   6.291  11.022
13131SOL     OW41399   1.714   9.437   5.231
13131SOL    HW141400   1.622   9.441   5.204
13131SOL    HW241401   1.714   9.468   5.321
13132SOL     OW41402   2.010   9.019   6.812
13132SOL    HW141403   2.053   8.936   6.789
13132SOL    HW241404   2.082   9.075   6.841
13133SOL     OW41405   0.688   8.133   7.137
13133SOL    HW141406   0.605   8.113   7.181
13133SOL    HW241407   0.709   8.053   7.089
13134SOL     OW41408   2.888  10.538   2.929
13134SOL    HW141409   2.968  10.531   2.877
13134SOL    HW241410   2.891  10.626   2.966
13135SOL     OW41411   1.734   2.820   9.407
13135SOL    HW141412   1.666   2.821   9.474
13135SOL    HW241413   1.808   2.865   9.447
13136SOL     OW41414   9.559  10.715  10.988
13136SOL    HW141415   9.542  10.622  10.972
13136SOL    HW241416   9.504  10.761  10.924
13137SOL     OW41417  10.080  10.755  10.060
13137SOL    HW141418  10.147  10.824  10.065
13137SOL    HW241419  10.106  10.703   9.983
13138SOL     OW41420   2.917   7.883  11.018
13138SOL    HW141421   2.904   7.973  11.047
13138SOL    HW241422   2.929   7.890  10.923
13139SOL     OW41423   2.565   2.656   2.115
13139SOL    HW141424   2.653   2.684   2.089
13139SOL    HW241425   2.557   2.567   2.079
13140SOL     OW41426   2.418   3.526   8.641
13140SOL    HW141427   2.399   3.446   8.690
13140SOL    HW241428   2.348   3.586   8.664
13141SOL     OW41429   3.993   3.584   5.583
13141SOL    HW141430   3.998   3.627   5.668
13141SOL    HW241431   3.933   3.638   5.532
13142SOL     OW41432   4.881   6.405  10.780
13142SOL    HW141433   4.799   6.438  10.744
13142SOL    HW241434   4.880   6.311  10.760
13143SOL     OW41435   2.384   1.571   4.768
13143SOL    HW141436   2.390   1.580   4.673
13143SOL    HW241437   2.470   1.600   4.800
13144SOL     OW41438   6.222  10.217   5.500
13144SOL    HW141439   6.169  10.274   5.444
13144SOL    HW241440   6.292  10.185   5.443
13145SOL     OW41441   2.018   7.797   3.915
13145SOL    HW141442   2.054   7.735   3.851
13145SOL    HW241443   2.040   7.760   4.000
13146SOL     OW41444   4.752   8.345  10.289
13146SOL    HW141445   4.706   8.427  10.272
13146SOL    HW241446   4.683   8.279  10.295
13147SOL     OW41447   2.120   0.669   3.357
13147SOL    HW141448   2.141   0.605   3.425
13147SOL    HW241449   2.140   0.623   3.275
13148SOL     OW41450   4.440   4.252   8.090
13148SOL    HW141451   4.406   4.289   8.171
13148SOL    HW241452   4.535   4.264   8.096
13149SOL     OW41453   4.709   7.695   1.905
13149SOL    HW141454   4.763   7.759   1.950
13149SOL    HW241455   4.688   7.736   1.821
13150SOL     OW41456   1.567   3.825   2.638
13150SOL    HW141457   1.621   3.885   2.689
13150SOL    HW241458   1.511   3.782   2.702
13151SOL     OW41459   7.713   6.993   8.706
13151SOL    HW141460   7.639   7.050   8.723
13151SOL    HW241461   7.677   6.921   8.653
13152SOL     OW41462   2.624   8.824   1.902
13152SOL    HW141463   2.702   8.775   1.875
13152SOL    HW241464   2.627   8.824   1.997
13153SOL     OW41465   6.029   7.491   9.390
13153SOL    HW141466   5.971   7.566   9.396
13153SOL    HW241467   6.098   7.509   9.453
13154SOL     OW41468   2.299   3.211   7.375
13154SOL    HW141469   2.308   3.305   7.359
13154SOL    HW241470   2.364   3.192   7.442
13155SOL     OW41471   0.515   0.693   1.236
13155SOL    HW141472   0.504   0.766   1.296
13155SOL    HW241473   0.469   0.620   1.278
13156SOL     OW41474   2.861  10.287   9.467
13156SOL    HW141475   2.846  10.297   9.373
13156SOL    HW241476   2.820  10.203   9.488
13157SOL     OW41477   3.666  10.820   5.037
13157SOL    HW141478   3.617  10.759   4.981
13157SOL    HW241479   3.750  10.831   4.992
13158SOL     OW41480   9.076   9.594   5.689
13158SOL    HW141481   9.052   9.629   5.603
13158SOL    HW241482   9.089   9.671   5.744
13159SOL     OW41483  11.062   6.808   6.199
13159SOL    HW141484  11.111   6.785   6.278
13159SOL    HW241485  10.997   6.738   6.189
13160SOL     OW41486   1.481   3.261   7.371
13160SOL    HW141487   1.474   3.315   7.292
13160SOL    HW241488   1.545   3.193   7.348
13161SOL     OW41489   0.027   3.476   7.183
13161SOL    HW141490  -0.063   3.474   7.149
13161SOL    HW241491   0.064   3.391   7.157
13162SOL     OW41492   3.461   7.717   9.567
13162SOL    HW141493   3.385   7.766   9.538
13162SOL    HW241494   3.489   7.668   9.489
13163SOL     OW41495   0.148   4.725   8.960
13163SOL    HW141496   0.106   4.746   8.876
13163SOL    HW241497   0.212   4.657   8.938
13164SOL     OW41498   0.144   2.082   6.087
13164SOL    HW141499   0.073   2.144   6.068
13164SOL    HW241500   0.114   1.999   6.050
13165SOL     OW41501   9.681   8.211   1.995
13165SOL    HW141502   9.710   8.181   2.081
13165SOL    HW241503   9.631   8.137   1.960
13166SOL     OW41504  10.309   7.095   2.690
13166SOL    HW141505  10.382   7.076   2.631
13166SOL    HW241506  10.254   7.156   2.641
13167SOL     OW41507   1.662   0.563   7.595
13167SOL    HW141508   1.636   0.551   7.686
13167SOL    HW241509   1.746   0.609   7.599
13168SOL     OW41510   4.461   0.295   9.662
13168SOL    HW141511   4.387   0.246   9.697
13168SOL    HW241512   4.530   0.285   9.728
13169SOL     OW41513   3.573   2.204   8.675
13169SOL    HW141514   3.601   2.285   8.632
13169SOL    HW241515   3.633   2.194   8.749
13170SOL     OW41516   3.644   3.987   3.515
13170SOL    HW141517   3.707   4.046   3.556
13170SOL    HW241518   3.662   3.995   3.421
13171SOL     OW41519   4.693   9.938   2.957
13171SOL    HW141520   4.674  10.000   2.886
13171SOL    HW241521   4.710   9.992   3.033
13172SOL     OW41522   5.132   1.341   2.923
13172SOL    HW141523   5.225   1.324   2.941
13172SOL    HW241524   5.088   1.326   3.006
13173SOL     OW41525   1.989   6.074   7.357
13173SOL    HW141526   1.994   6.101   7.265
13173SOL    HW241527   1.972   5.980   7.352
13174SOL     OW41528   4.319   6.205   0.888
13174SOL    HW141529   4.311   6.200   0.983
13174SOL    HW241530   4.363   6.288   0.872
13175SOL     OW41531   3.373   7.846   4.973
13175SOL    HW141532   3.411   7.789   5.040
13175SOL    HW241533   3.281   7.820   4.969
13176SOL     OW41534   4.912   7.780   9.762
13176SOL    HW141535   4.824   7.815   9.750
13176SOL    HW241536   4.967   7.832   9.704
13177SOL     OW41537   6.538  10.976   7.833
13177SOL    HW141538   6.538  11.072   7.827
13177SOL    HW241539   6.496  10.957   7.917
13178SOL     OW41540  10.089   6.863   7.804
13178SOL    HW141541  10.105   6.830   7.892
13178SOL    HW241542   9.998   6.841   7.786
13179SOL     OW41543   4.719   3.191   7.464
13179SOL    HW141544   4.758   3.269   7.502
13179SOL    HW241545   4.625   3.199   7.482
13180SOL     OW41546   8.156   0.399   9.821
13180SOL    HW141547   8.182   0.358   9.738
13180SOL    HW241548   8.175   0.492   9.809
13181SOL     OW41549   5.532   7.314   5.170
13181SOL    HW141550   5.577   7.262   5.236
13181SOL    HW241551   5.530   7.402   5.206
13182SOL     OW41552   1.777   2.721   6.119
13182SOL    HW141553   1.692   2.679   6.111
13182SOL    HW241554   1.759   2.804   6.161
13183SOL     OW41555   3.363   8.144   4.126
13183SOL    HW141556   3.377   8.062   4.174
13183SOL    HW241557   3.450   8.184   4.122
13184SOL     OW41558  10.303   3.404   2.386
13184SOL    HW141559  10.268   3.334   2.330
13184SOL    HW241560  10.229   3.463   2.400
13185SOL     OW41561   2.501  10.772   5.510
13185SOL    HW141562   2.482  10.788   5.602
13185SOL    HW241563   2.543  10.686   5.508
13186SOL     OW41564   2.560   8.392   6.376
13186SOL    HW141565   2.631   8.360   6.320
13186SOL    HW241566   2.495   8.425   6.314
13187SOL     OW41567   6.175   5.168   2.137
13187SOL    HW141568   6.196   5.174   2.044
13187SOL    HW241569   6.211   5.083   2.163
13188SOL     OW41570   3.441   8.462   3.254
13188SOL    HW141571   3.446   8.540   3.199
13188SOL    HW241572   3.491   8.484   3.332
13189SOL     OW41573   1.548   3.931   2.132
13189SOL    HW141574   1.570   3.844   2.167
13189SOL    HW241575   1.569   3.992   2.203
13190SOL     OW41576  10.838   8.691   9.713
13190SOL    HW141577  10.822   8.637   9.790
13190SOL    HW241578  10.860   8.777   9.747
13191SOL     OW41579   6.669   7.175   4.589
13191SOL    HW141580   6.587   7.129   4.606
13191SOL    HW241581   6.701   7.138   4.506
13192SOL     OW41582   5.663   4.147   6.187
13192SOL    HW141583   5.683   4.088   6.259
13192SOL    HW241584   5.589   4.106   6.142
13193SOL     OW41585   5.578   4.631   8.014
13193SOL    HW141586   5.523   4.556   8.038
13193SOL    HW241587   5.517   4.694   7.976
13194SOL     OW41588   0.777   0.304   4.595
13194SOL    HW141589   0.694   0.347   4.575
13194SOL    HW241590   0.778   0.226   4.538
13195SOL     OW41591   1.715   2.182   3.696
13195SOL    HW141592   1.720   2.093   3.730
13195SOL    HW241593   1.687   2.235   3.770
13196SOL     OW41594   8.524   2.497   8.820
13196SOL    HW141595   8.586   2.560   8.857
13196SOL    HW241596   8.458   2.551   8.777
13197SOL     OW41597  11.063   7.708   6.558
13197SOL    HW141598  10.988   7.767   6.549
13197SOL    HW241599  11.115   7.723   6.479
13198SOL     OW41600   3.934   2.812   5.059
13198SOL    HW141601   3.939   2.720   5.032
13198SOL    HW241602   3.915   2.859   4.978
13199SOL     OW41603  10.008  10.156   3.377
13199SOL    HW141604   9.989  10.120   3.290
13199SOL    HW241605   9.924  10.158   3.421
13200SOL     OW41606   6.260   8.413   6.607
13200SOL    HW141607   6.275   8.331   6.655
13200SOL    HW241608   6.173   8.442   6.635
13201SOL     OW41609   6.640   8.415   9.924
13201SOL    HW141610   6.647   8.493   9.869
13201SOL    HW241611   6.707   8.427   9.991
13202SOL     OW41612   1.267   9.719   4.514
13202SOL    HW141613   1.184   9.744   4.554
13202SOL    HW241614   1.299   9.647   4.569
13203SOL     OW41615   1.375   9.876   9.232
13203SOL    HW141616   1.430   9.888   9.154
13203SOL    HW241617   1.436   9.883   9.306
13204SOL     OW41618   0.643   7.116   1.664
13204SOL    HW141619   0.609   7.038   1.618
13204SOL    HW241620   0.568   7.151   1.711
13205SOL     OW41621   6.461   9.199   8.957
13205SOL    HW141622   6.544   9.230   8.920
13205SOL    HW241623   6.459   9.105   8.935
13206SOL     OW41624   1.119   8.910   4.982
13206SOL    HW141625   1.183   8.844   4.955
13206SOL    HW241626   1.109   8.897   5.076
13207SOL     OW41627   3.792   2.430   3.854
13207SOL    HW141628   3.748   2.508   3.886
13207SOL    HW241629   3.871   2.463   3.811
13208SOL     OW41630   3.563   6.506   2.826
13208SOL    HW141631   3.611   6.548   2.896
13208SOL    HW241632   3.613   6.426   2.808
13209SOL     OW41633   1.546   7.518   5.809
13209SOL    HW141634   1.637   7.490   5.819
13209SOL    HW241635   1.495   7.447   5.848
13210SOL     OW41636   2.699   4.980   9.288
13210SOL    HW141637   2.729   5.069   9.270
13210SOL    HW241638   2.608   4.990   9.316
13211SOL     OW41639   0.617   0.187   0.068
13211SOL    HW141640   0.598   0.201   0.161
13211SOL    HW241641   0.713   0.179   0.065
13212SOL     OW41642  10.848   6.961   3.059
13212SOL    HW141643  10.801   7.039   3.087
13212SOL    HW241644  10.780   6.896   3.043
13213SOL     OW41645   5.588   7.446   0.949
13213SOL    HW141646   5.509   7.498   0.965
13213SOL    HW241647   5.659   7.499   0.984
13214SOL     OW41648  10.722   7.545   4.458
13214SOL    HW141649  10.757   7.628   4.425
13214SOL    HW241650  10.785   7.479   4.427
13215SOL     OW41651   4.032   1.896   5.178
13215SOL    HW141652   4.046   1.898   5.083
13215SOL    HW241653   4.096   1.958   5.213
13216SOL     OW41654   5.082   8.572   9.018
13216SOL    HW141655   5.059   8.548   9.107
13216SOL    HW241656   5.120   8.492   8.980
13217SOL     OW41657   8.428   9.159   8.869
13217SOL    HW141658   8.463   9.227   8.811
13217SOL    HW241659   8.493   9.089   8.864
13218SOL     OW41660   3.539   4.917   7.605
13218SOL    HW141661   3.582   4.880   7.682
13218SOL    HW241662   3.485   4.988   7.639
13219SOL     OW41663   2.217   1.019   3.884
13219SOL    HW141664   2.213   1.067   3.801
13219SOL    HW241665   2.260   0.936   3.861
13220SOL     OW41666   4.442   4.663  10.474
13220SOL    HW141667   4.478   4.648  10.561
13220SOL    HW241668   4.519   4.666  10.417
13221SOL     OW41669   1.958   9.611   1.058
13221SOL    HW141670   2.020   9.616   0.984
13221SOL    HW241671   2.010   9.578   1.131
13222SOL     OW41672   9.549   7.284   0.090
13222SOL    HW141673   9.511   7.364   0.126
13222SOL    HW241674   9.640   7.285   0.121
13223SOL     OW41675   6.770  10.000   5.461
13223SOL    HW141676   6.749   9.928   5.520
13223SOL    HW241677   6.769  10.078   5.516
13224SOL     OW41678  10.997   6.145   8.112
13224SOL    HW141679  11.012   6.233   8.144
13224SOL    HW241680  10.997   6.090   8.190
13225SOL     OW41681   3.530   6.522   0.524
13225SOL    HW141682   3.615   6.545   0.486
13225SOL    HW241683   3.504   6.599   0.574
13226SOL     OW41684   3.010   5.197   9.214
13226SOL    HW141685   3.054   5.143   9.280
13226SOL    HW241686   3.039   5.160   9.130
13227SOL     OW41687   9.554   7.908   3.596
13227SOL    HW141688   9.460   7.898   3.585
13227SOL    HW241689   9.565   7.936   3.687
13228SOL     OW41690   4.966   7.977   1.174
13228SOL    HW141691   4.900   8.015   1.116
13228SOL    HW241692   4.935   7.888   1.191
13229SOL     OW41693   9.620   6.222  11.085
13229SOL    HW141694   9.647   6.164  11.013
13229SOL    HW241695   9.527   6.237  11.069
13230SOL     OW41696   0.163   2.658   1.201
13230SOL    HW141697   0.199   2.570   1.188
13230SOL    HW241698   0.145   2.663   1.295
13231SOL     OW41699   9.280   8.195  10.411
13231SOL    HW141700   9.209   8.233  10.360
13231SOL    HW241701   9.351   8.258  10.405
13232SOL     OW41702   1.071  10.442   5.073
13232SOL    HW141703   1.056  10.532   5.103
13232SOL    HW241704   1.020  10.388   5.133
13233SOL     OW41705  10.844   4.869   3.824
13233SOL    HW141706  10.919   4.896   3.877
13233SOL    HW241707  10.875   4.875   3.733
13234SOL     OW41708   9.720   7.638   8.288
13234SOL    HW141709   9.695   7.553   8.325
13234SOL    HW241710   9.777   7.616   8.214
13235SOL     OW41711   5.399   6.139   3.014
13235SOL    HW141712   5.486   6.131   3.053
13235SOL    HW241713   5.408   6.101   2.926
13236SOL     OW41714  10.858   3.879   9.800
13236SOL    HW141715  10.796   3.807   9.788
13236SOL    HW241716  10.862   3.921   9.714
13237SOL     OW41717   5.839   5.287   1.329
13237SOL    HW141718   5.908   5.295   1.395
13237SOL    HW241719   5.874   5.332   1.252
13238SOL     OW41720   2.632   3.376   7.867
13238SOL    HW141721   2.583   3.456   7.882
13238SOL    HW241722   2.607   3.318   7.939
13239SOL     OW41723   9.215   0.465   6.304
13239SOL    HW141724   9.128   0.428   6.321
13239SOL    HW241725   9.276   0.400   6.339
13240SOL     OW41726  10.432   2.133   0.098
13240SOL    HW141727  10.337   2.132   0.089
13240SOL    HW241728  10.464   2.088   0.020
13241SOL     OW41729   5.482  10.753   8.136
13241SOL    HW141730   5.411  10.802   8.178
13241SOL    HW241731   5.546  10.820   8.110
13242SOL     OW41732   2.889   5.241   2.956
13242SOL    HW141733   2.906   5.249   2.862
13242SOL    HW241734   2.820   5.175   2.962
13243SOL     OW41735   2.788   8.096   7.160
13243SOL    HW141736   2.823   8.007   7.155
13243SOL    HW241737   2.862   8.152   7.136
13244SOL     OW41738   2.227  10.283  10.990
13244SOL    HW141739   2.264  10.367  11.017
13244SOL    HW241740   2.297  10.241  10.939
13245SOL     OW41741   4.353   2.671  10.840
13245SOL    HW141742   4.437   2.695  10.879
13245SOL    HW241743   4.300   2.640  10.913
13246SOL     OW41744   0.038   1.278  10.242
13246SOL    HW141745   0.124   1.259  10.279
13246SOL    HW241746   0.008   1.356  10.289
13247SOL     OW41747   2.759   3.230   7.614
13247SOL    HW141748   2.753   3.325   7.619
13247SOL    HW241749   2.785   3.203   7.702
13248SOL     OW41750   0.259   8.248  10.451
13248SOL    HW141751   0.265   8.325  10.507
13248SOL    HW241752   0.320   8.266  10.379
13249SOL     OW41753   3.476   0.449   9.629
13249SOL    HW141754   3.533   0.390   9.578
13249SOL    HW241755   3.388   0.433   9.594
13250SOL     OW41756   3.535   9.202   0.742
13250SOL    HW141757   3.555   9.164   0.827
13250SOL    HW241758   3.599   9.272   0.732
13251SOL     OW41759   6.218   6.398   8.399
13251SOL    HW141760   6.252   6.348   8.324
13251SOL    HW241761   6.129   6.423   8.373
13252SOL     OW41762   5.336  10.017   6.926
13252SOL    HW141763   5.345  10.095   6.872
13252SOL    HW241764   5.311   9.948   6.864
13253SOL     OW41765   3.481   9.065  10.137
13253SOL    HW141766   3.515   9.000  10.075
13253SOL    HW241767   3.509   9.149  10.101
13254SOL     OW41768   9.350   8.028   6.697
13254SOL    HW141769   9.289   7.995   6.631
13254SOL    HW241770   9.331   7.976   6.775
13255SOL     OW41771   4.648   7.268   8.149
13255SOL    HW141772   4.595   7.188   8.155
13255SOL    HW241773   4.627   7.304   8.063
13256SOL     OW41774   2.223   0.409   9.300
13256SOL    HW141775   2.276   0.336   9.333
13256SOL    HW241776   2.156   0.422   9.366
13257SOL     OW41777   0.412   8.753   0.672
13257SOL    HW141778   0.385   8.665   0.646
13257SOL    HW241779   0.336   8.808   0.653
13258SOL     OW41780   2.606   6.497   0.333
13258SOL    HW141781   2.648   6.577   0.364
13258SOL    HW241782   2.666   6.426   0.358
13259SOL     OW41783   7.191   2.750   0.415
13259SOL    HW141784   7.250   2.756   0.490
13259SOL    HW241785   7.125   2.686   0.441
13260SOL     OW41786   4.061   9.771  10.785
13260SOL    HW141787   4.019   9.740  10.704
13260SOL    HW241788   4.079   9.863  10.768
13261SOL     OW41789   5.934   6.713   9.804
13261SOL    HW141790   5.883   6.665   9.739
13261SOL    HW241791   5.873   6.777   9.840
13262SOL     OW41792   9.059  10.649   5.812
13262SOL    HW141793   9.149  10.666   5.841
13262SOL    HW241794   9.029  10.577   5.867
13263SOL     OW41795   8.081   2.611   3.977
13263SOL    HW141796   8.076   2.706   3.982
13263SOL    HW241797   8.113   2.583   4.063
13264SOL     OW41798   2.497   7.511   3.652
13264SOL    HW141799   2.415   7.469   3.679
13264SOL    HW241800   2.539   7.446   3.595
13265SOL     OW41801   5.961   9.431  10.619
13265SOL    HW141802   5.998   9.369  10.556
13265SOL    HW241803   6.020   9.506  10.616
13266SOL     OW41804   4.114   6.042   2.376
13266SOL    HW141805   4.146   5.952   2.386
13266SOL    HW241806   4.191   6.097   2.390
13267SOL     OW41807   5.239   5.740   6.333
13267SOL    HW141808   5.275   5.825   6.355
13267SOL    HW241809   5.294   5.677   6.380
13268SOL     OW41810   5.481   6.884   5.204
13268SOL    HW141811   5.397   6.897   5.160
13268SOL    HW241812   5.522   6.812   5.156
13269SOL     OW41813   2.793  10.345   6.695
13269SOL    HW141814   2.864  10.387   6.744
13269SOL    HW241815   2.733  10.416   6.673
13270SOL     OW41816   5.399   3.054   6.950
13270SOL    HW141817   5.400   3.087   7.040
13270SOL    HW241818   5.491   3.058   6.922
13271SOL     OW41819   3.128  10.472   9.140
13271SOL    HW141820   3.136  10.431   9.054
13271SOL    HW241821   3.064  10.542   9.127
13272SOL     OW41822   1.701  10.964   1.296
13272SOL    HW141823   1.616  10.965   1.339
13272SOL    HW241824   1.709  11.052   1.258
13273SOL     OW41825   2.651   7.974   1.595
13273SOL    HW141826   2.579   8.033   1.618
13273SOL    HW241827   2.610   7.905   1.543
13274SOL     OW41828   9.479   5.170  10.543
13274SOL    HW141829   9.531   5.123  10.608
13274SOL    HW241830   9.535   5.242  10.515
13275SOL     OW41831   8.461   7.677   0.225
13275SOL    HW141832   8.534   7.730   0.193
13275SOL    HW241833   8.396   7.681   0.154
13276SOL     OW41834   4.611   4.835  10.286
13276SOL    HW141835   4.547   4.877  10.228
13276SOL    HW241836   4.630   4.751  10.244
13277SOL     OW41837  11.000   5.363   1.790
13277SOL    HW141838  10.953   5.281   1.775
13277SOL    HW241839  10.954   5.427   1.735
13278SOL     OW41840   2.838   5.471   9.467
13278SOL    HW141841   2.779   5.400   9.493
13278SOL    HW241842   2.921   5.427   9.446
13279SOL     OW41843   5.392   3.985   0.421
13279SOL    HW141844   5.409   3.899   0.381
13279SOL    HW241845   5.304   3.977   0.457
13280SOL     OW41846   1.444   5.689   2.626
13280SOL    HW141847   1.480   5.700   2.538
13280SOL    HW241848   1.516   5.652   2.677
13281SOL     OW41849   3.744   7.077   2.972
13281SOL    HW141850   3.824   7.023   2.974
13281SOL    HW241851   3.687   7.037   3.037
13282SOL     OW41852   1.122   0.629   2.436
13282SOL    HW141853   1.060   0.696   2.463
13282SOL    HW241854   1.148   0.586   2.517
13283SOL     OW41855   7.739   7.951   8.970
13283SOL    HW141856   7.681   7.908   8.907
13283SOL    HW241857   7.793   8.009   8.916
13284SOL     OW41858   2.482   5.878   0.248
13284SOL    HW141859   2.467   5.897   0.155
13284SOL    HW241860   2.431   5.943   0.295
13285SOL     OW41861   1.464   7.631   4.357
13285SOL    HW141862   1.547   7.600   4.319
13285SOL    HW241863   1.445   7.568   4.426
13286SOL     OW41864   2.406   5.985   6.784
13286SOL    HW141865   2.465   6.014   6.714
13286SOL    HW241866   2.417   5.890   6.787
13287SOL     OW41867   3.197   1.328   5.871
13287SOL    HW141868   3.235   1.270   5.805
13287SOL    HW241869   3.129   1.275   5.913
13288SOL     OW41870   0.029   8.713  10.651
13288SOL    HW141871   0.037   8.628  10.606
13288SOL    HW241872   0.111   8.722  10.700
13289SOL     OW41873   5.855  11.093   5.576
13289SOL    HW141874   5.879  11.173   5.529
13289SOL    HW241875   5.865  11.115   5.668
13290SOL     OW41876   7.011   3.547   6.930
13290SOL    HW141877   7.090   3.542   6.983
13290SOL    HW241878   6.942   3.571   6.992
13291SOL     OW41879   7.319   6.035   8.706
13291SOL    HW141880   7.313   6.003   8.616
13291SOL    HW241881   7.412   6.029   8.727
13292SOL     OW41882  10.523   0.922   7.856
13292SOL    HW141883  10.591   0.981   7.823
13292SOL    HW241884  10.524   0.934   7.951
13293SOL     OW41885   4.604  10.621   2.874
13293SOL    HW141886   4.538  10.570   2.920
13293SOL    HW241887   4.631  10.688   2.937
13294SOL     OW41888   0.510   3.989  10.868
13294SOL    HW141889   0.505   3.921  10.935
13294SOL    HW241890   0.420   3.997  10.836
13295SOL     OW41891   8.689   2.192   7.773
13295SOL    HW141892   8.718   2.275   7.811
13295SOL    HW241893   8.595   2.202   7.761
13296SOL     OW41894   6.287   4.595   5.674
13296SOL    HW141895   6.251   4.588   5.762
13296SOL    HW241896   6.213   4.578   5.616
13297SOL     OW41897   0.317   2.117   9.216
13297SOL    HW141898   0.403   2.127   9.176
13297SOL    HW241899   0.261   2.177   9.167
13298SOL     OW41900   3.308   5.349   2.146
13298SOL    HW141901   3.389   5.352   2.197
13298SOL    HW241902   3.268   5.265   2.170
13299SOL     OW41903   0.354   8.946   2.041
13299SOL    HW141904   0.337   8.988   2.125
13299SOL    HW241905   0.434   8.987   2.008
13300SOL     OW41906   6.018   0.855   4.502
13300SOL    HW141907   5.925   0.873   4.487
13300SOL    HW241908   6.051   0.932   4.547
13301SOL     OW41909   3.402   2.964   9.343
13301SOL    HW141910   3.446   3.038   9.301
13301SOL    HW241911   3.394   2.989   9.435
13302SOL     OW41912   1.679   7.255   4.849
13302SOL    HW141913   1.764   7.222   4.877
13302SOL    HW241914   1.694   7.347   4.829
13303SOL     OW41915   7.919   3.344   3.387
13303SOL    HW141916   7.920   3.434   3.355
13303SOL    HW241917   7.832   3.333   3.426
13304SOL     OW41918   6.104   2.580   6.196
13304SOL    HW141919   6.018   2.613   6.223
13304SOL    HW241920   6.164   2.653   6.212
13305SOL     OW41921   6.177   8.982   0.593
13305SOL    HW141922   6.172   8.930   0.673
13305SOL    HW241923   6.086   8.999   0.570
13306SOL     OW41924   4.796   5.384  10.409
13306SOL    HW141925   4.870   5.324  10.396
13306SOL    HW241926   4.757   5.393  10.322
13307SOL     OW41927   8.035   3.914   9.470
13307SOL    HW141928   7.941   3.923   9.485
13307SOL    HW241929   8.042   3.879   9.381
13308SOL     OW41930  10.604   3.153   8.033
13308SOL    HW141931  10.647   3.238   8.031
13308SOL    HW241932  10.579   3.137   7.942
13309SOL     OW41933   4.956   7.006   6.676
13309SOL    HW141934   4.977   7.092   6.711
13309SOL    HW241935   4.948   6.949   6.753
13310SOL     OW41936   4.802   6.310   3.667
13310SOL    HW141937   4.850   6.288   3.747
13310SOL    HW241938   4.763   6.227   3.639
13311SOL     OW41939   9.889  10.797   9.813
13311SOL    HW141940   9.867  10.873   9.867
13311SOL    HW241941   9.979  10.813   9.785
13312SOL     OW41942   8.252   7.017   7.952
13312SOL    HW141943   8.226   7.092   7.899
13312SOL    HW241944   8.348   7.020   7.953
13313SOL     OW41945   4.107   9.543   9.525
13313SOL    HW141946   4.156   9.507   9.450
13313SOL    HW241947   4.118   9.638   9.517
13314SOL     OW41948   6.172   2.861   4.982
13314SOL    HW141949   6.193   2.944   5.025
13314SOL    HW241950   6.119   2.813   5.046
13315SOL     OW41951   8.391  10.608   6.173
13315SOL    HW141952   8.396  10.701   6.194
13315SOL    HW241953   8.403  10.564   6.257
13316SOL     OW41954   3.215   6.627   1.685
13316SOL    HW141955   3.183   6.620   1.595
13316SOL    HW241956   3.305   6.658   1.676
13317SOL     OW41957   4.499   3.262  10.753
13317SOL    HW141958   4.532   3.303  10.673
13317SOL    HW241959   4.469   3.334  10.807
13318SOL     OW41960   9.760   8.394   8.207
13318SOL    HW141961   9.778   8.411   8.114
13318SOL    HW241962   9.745   8.299   8.210
13319SOL     OW41963   9.262  10.885   1.814
13319SOL    HW141964   9.240  10.887   1.721
13319SOL    HW241965   9.271  10.792   1.834
13320SOL     OW41966   3.572   5.763   0.836
13320SOL    HW141967   3.599   5.758   0.744
13320SOL    HW241968   3.637   5.710   0.883
13321SOL     OW41969   1.880   5.727  10.280
13321SOL    HW141970   1.835   5.768  10.353
13321SOL    HW241971   1.950   5.788  10.258
13322SOL     OW41972   1.545   7.246   5.962
13322SOL    HW141973   1.490   7.170   5.940
13322SOL    HW241974   1.632   7.208   5.978
13323SOL     OW41975  10.970   7.371   6.287
13323SOL    HW141976  10.979   7.400   6.377
13323SOL    HW241977  10.885   7.406   6.259
13324SOL     OW41978   4.167   1.817  10.187
13324SOL    HW141979   4.178   1.814  10.282
13324SOL    HW241980   4.131   1.731  10.164
13325SOL     OW41981   3.296   0.381   9.838
13325SOL    HW141982   3.278   0.290   9.815
13325SOL    HW241983   3.374   0.403   9.786
13326SOL     OW41984   7.393   6.405   6.034
13326SOL    HW141985   7.462   6.463   6.003
13326SOL    HW241986   7.390   6.335   5.969
13327SOL     OW41987   7.622  10.698  10.436
13327SOL    HW141988   7.693  10.657  10.485
13327SOL    HW241989   7.663  10.772  10.391
13328SOL     OW41990   0.162   9.531   8.356
13328SOL    HW141991   0.218   9.472   8.406
13328SOL    HW241992   0.218   9.565   8.286
13329SOL     OW41993   1.275  10.542   2.887
13329SOL    HW141994   1.349  10.509   2.835
13329SOL    HW241995   1.244  10.619   2.839
13330SOL     OW41996  10.393   1.215   2.371
13330SOL    HW141997  10.423   1.305   2.379
13330SOL    HW241998  10.308   1.214   2.414
13331SOL     OW41999   3.632   9.862   9.798
13331SOL    HW142000   3.717   9.826   9.825
13331SOL    HW242001   3.651   9.951   9.771
13332SOL     OW42002   7.736   9.749   4.858
13332SOL    HW142003   7.719   9.751   4.764
13332SOL    HW242004   7.761   9.838   4.880
13333SOL     OW42005   7.449   7.279   9.060
13333SOL    HW142006   7.451   7.352   9.121
13333SOL    HW242007   7.541   7.261   9.040
13334SOL     OW42008   2.398   8.400   7.389
13334SOL    HW142009   2.413   8.494   7.397
13334SOL    HW242010   2.470   8.360   7.437
13335SOL     OW42011   1.560   9.149   8.863
13335SOL    HW142012   1.476   9.104   8.861
13335SOL    HW242013   1.576   9.167   8.955
13336SOL     OW42014   2.236   0.400   0.002
13336SOL    HW142015   2.153   0.353  -0.011
13336SOL    HW242016   2.283   0.347   0.067
13337SOL     OW42017   5.715   7.419   9.195
13337SOL    HW142018   5.622   7.435   9.208
13337SOL    HW242019   5.758   7.494   9.236
13338SOL     OW42020   0.573   7.408   8.474
13338SOL    HW142021   0.499   7.466   8.460
13338SOL    HW242022   0.609   7.394   8.386
13339SOL     OW42023   5.232   8.552   1.979
13339SOL    HW142024   5.285   8.584   1.906
13339SOL    HW242025   5.142   8.555   1.946
13340SOL     OW42026   7.658   0.382   0.797
13340SOL    HW142027   7.604   0.370   0.719
13340SOL    HW242028   7.618   0.456   0.843
13341SOL     OW42029   7.435   7.534   9.983
13341SOL    HW142030   7.519   7.509   9.943
13341SOL    HW242031   7.390   7.583   9.914
13342SOL     OW42032   2.647   2.510   3.443
13342SOL    HW142033   2.611   2.437   3.493
13342SOL    HW242034   2.580   2.578   3.448
13343SOL     OW42035   6.711   7.848   5.366
13343SOL    HW142036   6.777   7.822   5.302
13343SOL    HW242037   6.719   7.783   5.435
13344SOL     OW42038   2.261   8.152   9.781
13344SOL    HW142039   2.340   8.127   9.733
13344SOL    HW242040   2.290   8.221   9.841
13345SOL     OW42041   4.364   4.288   7.839
13345SOL    HW142042   4.390   4.295   7.931
13345SOL    HW242043   4.366   4.377   7.806
13346SOL     OW42044   0.048   8.550  10.924
13346SOL    HW142045   0.013   8.502  10.848
13346SOL    HW242046   0.093   8.483  10.976
13347SOL     OW42047   9.636   0.389  11.069
13347SOL    HW142048   9.630   0.297  11.042
13347SOL    HW242049   9.583   0.436  11.005
13348SOL     OW42050   3.272   2.065  10.934
13348SOL    HW142051   3.312   1.978  10.934
13348SOL    HW242052   3.307   2.107  10.855
13349SOL     OW42053   9.800   8.321   3.706
13349SOL    HW142054   9.857   8.378   3.758
13349SOL    HW242055   9.860   8.257   3.665
13350SOL     OW42056   5.620   4.237   9.168
13350SOL    HW142057   5.714   4.227   9.150
13350SOL    HW242058   5.616   4.274   9.256
13351SOL     OW42059   0.114   3.066   5.272
13351SOL    HW142060   0.019   3.053   5.273
13351SOL    HW242061   0.126   3.157   5.298
13352SOL     OW42062  10.143   2.203   1.376
13352SOL    HW142063  10.056   2.165   1.389
13352SOL    HW242064  10.158   2.255   1.454
13353SOL     OW42065   3.339   9.019   9.568
13353SOL    HW142066   3.393   8.939   9.569
13353SOL    HW242067   3.394   9.084   9.525
13354SOL     OW42068   4.660   4.472   7.117
13354SOL    HW142069   4.582   4.502   7.070
13354SOL    HW242070   4.718   4.548   7.119
13355SOL     OW42071   2.738   2.969   8.367
13355SOL    HW142072   2.723   2.882   8.405
13355SOL    HW242073   2.778   2.951   8.282
13356SOL     OW42074   1.216   8.181   8.878
13356SOL    HW142075   1.143   8.120   8.888
13356SOL    HW242076   1.292   8.125   8.859
13357SOL     OW42077   4.076   0.624   9.072
13357SOL    HW142078   4.003   0.588   9.122
13357SOL    HW242079   4.086   0.563   8.998
13358SOL     OW42080   1.435   2.689  10.944
13358SOL    HW142081   1.368   2.671  11.010
13358SOL    HW242082   1.493   2.613  10.947
13359SOL     OW42083  10.724   9.529   9.844
13359SOL    HW142084  10.691   9.493   9.761
13359SOL    HW242085  10.817   9.505   9.845
13360SOL     OW42086   8.111   3.626   0.548
13360SOL    HW142087   8.092   3.575   0.469
13360SOL    HW242088   8.066   3.709   0.534
13361SOL     OW42089   5.761   1.573   8.089
13361SOL    HW142090   5.719   1.622   8.159
13361SOL    HW242091   5.799   1.496   8.132
13362SOL     OW42092   1.144   3.439   7.635
13362SOL    HW142093   1.111   3.365   7.687
13362SOL    HW242094   1.238   3.423   7.629
13363SOL     OW42095   3.855   5.863   5.901
13363SOL    HW142096   3.882   5.954   5.901
13363SOL    HW242097   3.894   5.826   5.980
13364SOL     OW42098   8.030   8.445   3.915
13364SOL    HW142099   7.954   8.431   3.858
13364SOL    HW242100   8.069   8.358   3.924
13365SOL     OW42101   5.288  10.490  11.064
13365SOL    HW142102   5.327  10.405  11.045
13365SOL    HW242103   5.221  10.501  10.996
13366SOL     OW42104   5.008   9.476  10.064
13366SOL    HW142105   4.954   9.532  10.009
13366SOL    HW242106   5.082   9.451  10.007
13367SOL     OW42107   4.319   9.299  10.461
13367SOL    HW142108   4.379   9.359  10.417
13367SOL    HW242109   4.262   9.355  10.513
13368SOL     OW42110   1.696  10.805   5.668
13368SOL    HW142111   1.735  10.849   5.744
13368SOL    HW242112   1.759  10.819   5.597
13369SOL     OW42113   1.856   5.297   7.735
13369SOL    HW142114   1.810   5.216   7.713
13369SOL    HW242115   1.941   5.289   7.691
13370SOL     OW42116   4.775   9.728   7.831
13370SOL    HW142117   4.854   9.674   7.822
13370SOL    HW242118   4.703   9.665   7.825
13371SOL     OW42119   1.343   7.011   8.710
13371SOL    HW142120   1.408   7.074   8.740
13371SOL    HW242121   1.296   6.985   8.789
13372SOL     OW42122   1.277   7.440   1.246
13372SOL    HW142123   1.234   7.396   1.172
13372SOL    HW242124   1.332   7.507   1.205
13373SOL     OW42125   4.933   8.240   8.801
13373SOL    HW142126   5.012   8.285   8.831
13373SOL    HW242127   4.888   8.305   8.747
13374SOL     OW42128   0.655   0.530  10.460
13374SOL    HW142129   0.681   0.552  10.370
13374SOL    HW242130   0.670   0.435  10.466
13375SOL     OW42131   0.110  10.576   8.890
13375SOL    HW142132   0.097  10.555   8.797
13375SOL    HW242133   0.185  10.635   8.891
13376SOL     OW42134   8.274   3.896   5.537
13376SOL    HW142135   8.258   3.988   5.557
13376SOL    HW242136   8.257   3.888   5.443
13377SOL     OW42137   5.916   1.103   5.779
13377SOL    HW142138   5.955   1.180   5.819
13377SOL    HW242139   5.828   1.130   5.754
13378SOL     OW42140   8.889  10.543   7.814
13378SOL    HW142141   8.806  10.579   7.844
13378SOL    HW242142   8.882  10.449   7.828
13379SOL     OW42143  10.361   7.041   3.722
13379SOL    HW142144  10.332   7.056   3.812
13379SOL    HW242145  10.360   7.128   3.682
13380SOL     OW42146   3.058   9.873   1.916
13380SOL    HW142147   3.059   9.968   1.924
13380SOL    HW242148   3.035   9.841   2.003
13381SOL     OW42149   4.125   9.761   6.595
13381SOL    HW142150   4.057   9.758   6.528
13381SOL    HW242151   4.203   9.790   6.548
13382SOL     OW42152  10.454   4.602   0.409
13382SOL    HW142153  10.523   4.552   0.453
13382SOL    HW242154  10.387   4.536   0.388
13383SOL     OW42155   3.525   7.385   4.882
13383SOL    HW142156   3.498   7.303   4.923
13383SOL    HW242157   3.617   7.396   4.907
13384SOL     OW42158   6.021   0.701  10.141
13384SOL    HW142159   6.085   0.637  10.172
13384SOL    HW242160   5.969   0.653  10.076
13385SOL     OW42161   9.984   8.781   9.433
13385SOL    HW142162   9.970   8.850   9.497
13385SOL    HW242163   9.945   8.815   9.352
13386SOL     OW42164   6.830   3.646   7.868
13386SOL    HW142165   6.816   3.556   7.898
13386SOL    HW242166   6.743   3.677   7.844
13387SOL     OW42167   4.093   1.459   0.577
13387SOL    HW142168   4.164   1.499   0.627
13387SOL    HW242169   4.135   1.429   0.496
13388SOL     OW42170   8.459   6.834   4.159
13388SOL    HW142171   8.459   6.751   4.111
13388SOL    HW242172   8.471   6.808   4.250
13389SOL     OW42173   3.479   7.140   8.552
13389SOL    HW142174   3.574   7.142   8.560
13389SOL    HW242175   3.457   7.220   8.504
13390SOL     OW42176   1.642  10.182   3.655
13390SOL    HW142177   1.672  10.212   3.740
13390SOL    HW242178   1.719  10.188   3.598
13391SOL     OW42179   2.020  10.381   3.501
13391SOL    HW142180   2.015  10.459   3.446
13391SOL    HW242181   2.107  10.384   3.540
13392SOL     OW42182   2.221   0.265   0.894
13392SOL    HW142183   2.286   0.335   0.901
13392SOL    HW242184   2.156   0.285   0.961
13393SOL     OW42185   8.357   1.638   5.852
13393SOL    HW142186   8.372   1.686   5.771
13393SOL    HW242187   8.279   1.678   5.890
13394SOL     OW42188   3.742   0.433   4.798
13394SOL    HW142189   3.670   0.462   4.853
13394SOL    HW242190   3.810   0.405   4.859
13395SOL     OW42191   0.093   4.702  10.380
13395SOL    HW142192   0.179   4.725  10.346
13395SOL    HW242193   0.077   4.614  10.345
13396SOL     OW42194   3.793   8.618   6.062
13396SOL    HW142195   3.858   8.583   6.123
13396SOL    HW242196   3.797   8.559   5.987
13397SOL     OW42197   8.316   1.355   9.671
13397SOL    HW142198   8.271   1.439   9.666
13397SOL    HW242199   8.409   1.376   9.658
13398SOL     OW42200   1.107   8.384   7.477
13398SOL    HW142201   1.087   8.293   7.454
13398SOL    HW242202   1.093   8.433   7.396
13399SOL     OW42203   1.827   0.877   7.396
13399SOL    HW142204   1.866   0.805   7.346
13399SOL    HW242205   1.787   0.835   7.472
13400SOL     OW42206  10.181   8.791   1.189
13400SOL    HW142207  10.173   8.755   1.100
13400SOL    HW242208  10.248   8.736   1.231
13401SOL     OW42209   9.874   1.934   3.326
13401SOL    HW142210   9.913   1.931   3.413
13401SOL    HW242211   9.881   2.026   3.300
13402SOL     OW42212   2.459   2.513   6.102
13402SOL    HW142213   2.400   2.455   6.053
13402SOL    HW242214   2.538   2.460   6.116
13403SOL     OW42215   1.514   9.736   9.667
13403SOL    HW142216   1.469   9.812   9.703
13403SOL    HW242217   1.514   9.672   9.738
13404SOL     OW42218   9.598   8.441   5.248
13404SOL    HW142219   9.651   8.375   5.293
13404SOL    HW242220   9.582   8.403   5.161
13405SOL     OW42221   4.557   4.459   8.413
13405SOL    HW142222   4.539   4.370   8.381
13405SOL    HW242223   4.615   4.446   8.488
13406SOL     OW42224  10.192  10.532   9.254
13406SOL    HW142225  10.167  10.603   9.313
13406SOL    HW242226  10.149  10.553   9.171
13407SOL     OW42227  10.536   0.538  10.737
13407SOL    HW142228  10.483   0.459  10.723
13407SOL    HW242229  10.535   0.583  10.652
13408SOL     OW42230   9.851  10.683  11.020
13408SOL    HW142231   9.759  10.704  11.006
13408SOL    HW242232   9.860  10.593  10.989
13409SOL     OW42233   0.647   2.142   9.479
13409SOL    HW142234   0.606   2.190   9.550
13409SOL    HW242235   0.629   2.193   9.400
13410SOL     OW42236   4.211   0.020   8.542
13410SOL    HW142237   4.197   0.111   8.567
13410SOL    HW242238   4.145  -0.029   8.591
13411SOL     OW42239   6.475   5.311   9.443
13411SOL    HW142240   6.569   5.308   9.425
13411SOL    HW242241   6.455   5.225   9.480
13412SOL     OW42242   9.591   2.566   1.408
13412SOL    HW142243   9.529   2.514   1.460
13412SOL    HW242244   9.606   2.645   1.460
13413SOL     OW42245   7.392   9.250   0.750
13413SOL    HW142246   7.403   9.155   0.742
13413SOL    HW242247   7.306   9.267   0.712
13414SOL     OW42248   8.022   3.119   9.955
13414SOL    HW142249   8.078   3.042   9.966
13414SOL    HW242250   7.938   3.092   9.991
13415SOL     OW42251  10.122   8.850   8.015
13415SOL    HW142252  10.124   8.929   7.961
13415SOL    HW242253  10.058   8.869   8.083
13416SOL     OW42254   4.100   9.968   2.498
13416SOL    HW142255   4.051   9.976   2.416
13416SOL    HW242256   4.044   9.915   2.555
13417SOL     OW42257   2.832   8.701   9.629
13417SOL    HW142258   2.737   8.702   9.624
13417SOL    HW242259   2.851   8.671   9.718
13418SOL     OW42260   0.437   8.054   8.805
13418SOL    HW142261   0.519   8.052   8.756
13418SOL    HW242262   0.381   7.991   8.759
13419SOL     OW42263  10.950   5.538   5.367
13419SOL    HW142264  10.949   5.464   5.306
13419SOL    HW242265  10.914   5.503   5.448
13420SOL     OW42266   6.153   6.298   9.562
13420SOL    HW142267   6.063   6.289   9.592
13420SOL    HW242268   6.206   6.292   9.641
13421SOL     OW42269   5.970   1.402   8.603
13421SOL    HW142270   6.008   1.443   8.681
13421SOL    HW242271   5.877   1.394   8.622
13422SOL     OW42272   5.361   6.800   8.189
13422SOL    HW142273   5.291   6.856   8.223
13422SOL    HW242274   5.319   6.749   8.119
13423SOL     OW42275   1.461   5.338   8.481
13423SOL    HW142276   1.376   5.382   8.476
13423SOL    HW242277   1.459   5.291   8.564
13424SOL     OW42278   3.442   3.745   2.218
13424SOL    HW142279   3.353   3.778   2.231
13424SOL    HW242280   3.492   3.820   2.186
13425SOL     OW42281   8.388   4.122  10.452
13425SOL    HW142282   8.474   4.080  10.442
13425SOL    HW242283   8.343   4.069  10.518
13426SOL     OW42284   4.755   7.389  10.157
13426SOL    HW142285   4.756   7.445  10.234
13426SOL    HW242286   4.831   7.417  10.105
13427SOL     OW42287   5.381   7.198   8.942
13427SOL    HW142288   5.468   7.189   8.903
13427SOL    HW242289   5.321   7.162   8.876
13428SOL     OW42290   7.051   1.134   5.573
13428SOL    HW142291   7.067   1.228   5.578
13428SOL    HW242292   7.138   1.095   5.570
13429SOL     OW42293   3.134   6.114   7.100
13429SOL    HW142294   3.211   6.130   7.045
13429SOL    HW242295   3.086   6.197   7.099
13430SOL     OW42296   2.335   4.249   4.383
13430SOL    HW142297   2.401   4.273   4.317
13430SOL    HW242298   2.362   4.162   4.413
13431SOL     OW42299   7.614   0.121   2.663
13431SOL    HW142300   7.556   0.172   2.606
13431SOL    HW242301   7.702   0.155   2.644
13432SOL     OW42302   7.706   9.452   0.059
13432SOL    HW142303   7.789   9.437   0.014
13432SOL    HW242304   7.644   9.396   0.013
13433SOL     OW42305   5.855   1.501  10.450
13433SOL    HW142306   5.932   1.531  10.401
13433SOL    HW242307   5.887   1.426  10.501
13434SOL     OW42308  10.479   0.475   1.125
13434SOL    HW142309  10.514   0.439   1.043
13434SOL    HW242310  10.396   0.515   1.100
13435SOL     OW42311   0.014   2.480   2.930
13435SOL    HW142312   0.063   2.451   3.007
13435SOL    HW242313  -0.078   2.481   2.958
13436SOL     OW42314   5.464   2.237   9.721
13436SOL    HW142315   5.538   2.216   9.663
13436SOL    HW242316   5.387   2.228   9.665
13437SOL     OW42317  10.324   6.734   9.544
13437SOL    HW142318  10.265   6.663   9.571
13437SOL    HW242319  10.317   6.799   9.614
13438SOL     OW42320   7.208   8.713   1.001
13438SOL    HW142321   7.120   8.734   0.970
13438SOL    HW242322   7.231   8.785   1.059
13439SOL     OW42323   0.384   7.663   9.567
13439SOL    HW142324   0.454   7.642   9.629
13439SOL    HW242325   0.415   7.741   9.521
13440SOL     OW42326   0.779   3.982  10.833
13440SOL    HW142327   0.785   3.925  10.756
13440SOL    HW242328   0.686   3.982  10.856
13441SOL     OW42329   8.862  10.994   8.813
13441SOL    HW142330   8.848  11.085   8.840
13441SOL    HW242331   8.929  10.961   8.873
13442SOL     OW42332   6.547   7.432   8.200
13442SOL    HW142333   6.519   7.376   8.127
13442SOL    HW242334   6.476   7.495   8.210
13443SOL     OW42335   4.720   9.595   1.468
13443SOL    HW142336   4.638   9.545   1.470
13443SOL    HW242337   4.714   9.655   1.542
13444SOL     OW42338  10.981   5.795   5.702
13444SOL    HW142339  11.005   5.819   5.612
13444SOL    HW242340  11.053   5.740   5.732
13445SOL     OW42341   3.413   1.818   6.106
13445SOL    HW142342   3.480   1.882   6.131
13445SOL    HW242343   3.457   1.761   6.043
13446SOL     OW42344   6.126   9.293   8.343
13446SOL    HW142345   6.157   9.300   8.433
13446SOL    HW242346   6.039   9.331   8.345
13447SOL     OW42347   7.084   8.817   8.799
13447SOL    HW142348   6.994   8.793   8.778
13447SOL    HW242349   7.122   8.737   8.835
13448SOL     OW42350   7.717   1.911   0.942
13448SOL    HW142351   7.774   1.840   0.973
13448SOL    HW242352   7.719   1.903   0.846
13449SOL     OW42353   2.220  10.595   3.279
13449SOL    HW142354   2.240  10.686   3.256
13449SOL    HW242355   2.140  10.600   3.331
13450SOL     OW42356   5.983   1.849   0.272
13450SOL    HW142357   5.951   1.761   0.292
13450SOL    HW242358   5.955   1.865   0.182
13451SOL     OW42359   7.901   3.136  10.706
13451SOL    HW142360   7.960   3.081  10.654
13451SOL    HW242361   7.959   3.184  10.765
13452SOL     OW42362   9.986   8.462   1.434
13452SOL    HW142363   9.893   8.442   1.445
13452SOL    HW242364  10.031   8.393   1.483
13453SOL     OW42365   9.470   3.899   7.006
13453SOL    HW142366   9.495   3.902   6.913
13453SOL    HW242367   9.547   3.863   7.050
13454SOL     OW42368   0.811   7.924   5.981
13454SOL    HW142369   0.882   7.891   5.925
13454SOL    HW242370   0.742   7.858   5.972
13455SOL     OW42371   5.711   6.026  10.451
13455SOL    HW142372   5.681   6.071  10.372
13455SOL    HW242373   5.807   6.027  10.444
13456SOL     OW42374   8.633  10.496  10.967
13456SOL    HW142375   8.685  10.519  10.890
13456SOL    HW242376   8.543  10.519  10.943
13457SOL     OW42377   5.167   0.491   8.994
13457SOL    HW142378   5.246   0.489   8.939
13457SOL    HW242379   5.124   0.407   8.978
13458SOL     OW42380   3.302   9.288   8.320
13458SOL    HW142381   3.254   9.205   8.321
13458SOL    HW242382   3.258   9.340   8.253
13459SOL     OW42383   8.723   1.066   8.016
13459SOL    HW142384   8.757   0.991   8.064
13459SOL    HW242385   8.765   1.142   8.056
13460SOL     OW42386   4.313   3.081   7.854
13460SOL    HW142387   4.408   3.073   7.864
13460SOL    HW242388   4.299   3.173   7.831
13461SOL     OW42389   7.589  10.678   6.448
13461SOL    HW142390   7.505  10.715   6.474
13461SOL    HW242391   7.593  10.593   6.492
13462SOL     OW42392   5.903   6.205   8.633
13462SOL    HW142393   5.896   6.270   8.563
13462SOL    HW242394   5.946   6.130   8.591
13463SOL     OW42395   2.023   7.041   9.442
13463SOL    HW142396   2.046   7.119   9.392
13463SOL    HW242397   2.036   6.968   9.380
13464SOL     OW42398   1.887   7.987   2.917
13464SOL    HW142399   1.920   8.046   2.850
13464SOL    HW242400   1.931   7.904   2.899
13465SOL     OW42401   7.298  10.162  10.569
13465SOL    HW142402   7.359  10.134  10.637
13465SOL    HW242403   7.240  10.087  10.557
13466SOL     OW42404   2.932   4.653   1.932
13466SOL    HW142405   2.841   4.623   1.936
13466SOL    HW242406   2.942   4.711   2.007
13467SOL     OW42407   5.913   6.814   7.632
13467SOL    HW142408   5.881   6.749   7.695
13467SOL    HW242409   5.878   6.897   7.663
13468SOL     OW42410   9.878   4.373  10.779
13468SOL    HW142411   9.967   4.383  10.745
13468SOL    HW242412   9.869   4.279  10.794
13469SOL     OW42413   1.215   4.491   9.924
13469SOL    HW142414   1.278   4.559   9.947
13469SOL    HW242415   1.174   4.466  10.007
13470SOL     OW42416   4.037   4.943   5.851
13470SOL    HW142417   4.016   5.021   5.902
13470SOL    HW242418   4.014   4.870   5.908
13471SOL     OW42419   0.479  10.490   6.253
13471SOL    HW142420   0.387  10.479   6.230
13471SOL    HW242421   0.514  10.401   6.254
13472SOL     OW42422   0.038  10.547   9.349
13472SOL    HW142423   0.093  10.505   9.283
13472SOL    HW242424   0.086  10.537   9.431
13473SOL     OW42425   2.411   9.164   9.290
13473SOL    HW142426   2.452   9.195   9.209
13473SOL    HW242427   2.372   9.242   9.329
13474SOL     OW42428   4.955   5.112   9.367
13474SOL    HW142429   4.928   5.136   9.455
13474SOL    HW242430   4.873   5.093   9.321
13475SOL     OW42431   4.252   4.235   4.108
13475SOL    HW142432   4.284   4.194   4.188
13475SOL    HW242433   4.326   4.287   4.077
13476SOL     OW42434   1.915   2.885  10.969
13476SOL    HW142435   1.938   2.816  11.031
13476SOL    HW242436   1.833   2.921  11.002
13477SOL     OW42437   9.341   6.238   0.445
13477SOL    HW142438   9.309   6.246   0.355
13477SOL    HW242439   9.436   6.242   0.437
13478SOL     OW42440   8.338   5.247   3.644
13478SOL    HW142441   8.243   5.252   3.632
13478SOL    HW242442   8.370   5.334   3.620
13479SOL     OW42443   8.580   6.411   5.568
13479SOL    HW142444   8.644   6.475   5.598
13479SOL    HW242445   8.577   6.423   5.473
13480SOL     OW42446   7.190  10.942   8.636
13480SOL    HW142447   7.271  10.993   8.637
13480SOL    HW242448   7.201  10.881   8.563
13481SOL     OW42449   1.630   8.817   0.539
13481SOL    HW142450   1.536   8.832   0.535
13481SOL    HW242451   1.638   8.722   0.553
13482SOL     OW42452   2.141   9.310   6.505
13482SOL    HW142453   2.061   9.258   6.506
13482SOL    HW242454   2.130   9.369   6.430
13483SOL     OW42455   9.548   3.301   6.912
13483SOL    HW142456   9.637   3.304   6.947
13483SOL    HW242457   9.537   3.210   6.882
13484SOL     OW42458   0.541   6.099   3.243
13484SOL    HW142459   0.615   6.043   3.219
13484SOL    HW242460   0.576   6.158   3.309
13485SOL     OW42461   0.638   8.535   8.271
13485SOL    HW142462   0.601   8.475   8.336
13485SOL    HW242463   0.600   8.620   8.293
13486SOL     OW42464   4.588   1.769   1.806
13486SOL    HW142465   4.543   1.767   1.890
13486SOL    HW242466   4.563   1.686   1.764
13487SOL     OW42467   6.176   3.333   0.587
13487SOL    HW142468   6.126   3.365   0.662
13487SOL    HW242469   6.232   3.406   0.561
13488SOL     OW42470   5.063   1.621   2.316
13488SOL    HW142471   5.045   1.715   2.316
13488SOL    HW242472   4.992   1.583   2.367
13489SOL     OW42473   0.795   7.858   9.325
13489SOL    HW142474   0.775   7.771   9.289
13489SOL    HW242475   0.711   7.891   9.355
13490SOL     OW42476   4.144  10.602  10.730
13490SOL    HW142477   4.183  10.516  10.715
13490SOL    HW242478   4.185  10.658  10.663
13491SOL     OW42479   2.231   5.369   4.258
13491SOL    HW142480   2.180   5.293   4.229
13491SOL    HW242481   2.318   5.333   4.277
13492SOL     OW42482  10.046   4.959   1.495
13492SOL    HW142483   9.978   4.894   1.513
13492SOL    HW242484  10.019   5.000   1.413
13493SOL     OW42485   4.284   7.831   5.495
13493SOL    HW142486   4.368   7.876   5.489
13493SOL    HW242487   4.234   7.881   5.559
13494SOL     OW42488   6.930   2.137   0.638
13494SOL    HW142489   6.835   2.150   0.643
13494SOL    HW242490   6.955   2.107   0.725
13495SOL     OW42491   6.612   1.234   6.145
13495SOL    HW142492   6.525   1.270   6.131
13495SOL    HW242493   6.669   1.288   6.091
13496SOL     OW42494   7.783   7.987  10.700
13496SOL    HW142495   7.737   7.903  10.690
13496SOL    HW242496   7.820   8.004  10.613
13497SOL     OW42497   2.163   7.526   6.170
13497SOL    HW142498   2.214   7.544   6.249
13497SOL    HW242499   2.112   7.605   6.156
13498SOL     OW42500   1.373  10.885   0.712
13498SOL    HW142501   1.438  10.817   0.695
13498SOL    HW242502   1.350  10.874   0.804
13499SOL     OW42503   1.443   4.796   0.062
13499SOL    HW142504   1.350   4.784   0.079
13499SOL    HW242505   1.452   4.889   0.041
13500SOL     OW42506   1.317   5.324   9.732
13500SOL    HW142507   1.349   5.342   9.820
13500SOL    HW242508   1.304   5.410   9.693
13501SOL     OW42509   1.245   8.958   8.459
13501SOL    HW142510   1.224   8.879   8.509
13501SOL    HW242511   1.273   8.925   8.373
13502SOL     OW42512   5.209   3.621   0.119
13502SOL    HW142513   5.212   3.703   0.071
13502SOL    HW242514   5.195   3.646   0.210
13503SOL     OW42515   6.525   9.065  10.769
13503SOL    HW142516   6.601   9.110  10.806
13503SOL    HW242517   6.544   9.060  10.675
13504SOL     OW42518   3.586   4.680   1.894
13504SOL    HW142519   3.556   4.627   1.820
13504SOL    HW242520   3.596   4.768   1.857
13505SOL     OW42521   0.516   2.056  10.764
13505SOL    HW142522   0.443   2.046  10.703
13505SOL    HW242523   0.499   2.139  10.807
13506SOL     OW42524   6.502   7.081  10.579
13506SOL    HW142525   6.570   7.082  10.512
13506SOL    HW242526   6.469   6.991  10.578
13507SOL     OW42527   0.340   4.921   7.323
13507SOL    HW142528   0.377   4.854   7.380
13507SOL    HW242529   0.407   4.989   7.319
13508SOL     OW42530   8.315   4.554   7.576
13508SOL    HW142531   8.344   4.643   7.593
13508SOL    HW242532   8.391   4.499   7.598
13509SOL     OW42533   3.176   3.384   7.818
13509SOL    HW142534   3.213   3.472   7.826
13509SOL    HW242535   3.082   3.397   7.827
13510SOL     OW42536   5.224   7.384   3.178
13510SOL    HW142537   5.252   7.414   3.264
13510SOL    HW242538   5.302   7.342   3.141
13511SOL     OW42539   5.551   6.213   3.352
13511SOL    HW142540   5.628   6.237   3.404
13511SOL    HW242541   5.567   6.252   3.266
13512SOL     OW42542   4.181   6.420   8.583
13512SOL    HW142543   4.207   6.502   8.623
13512SOL    HW242544   4.116   6.445   8.517
13513SOL     OW42545   5.613   3.537   7.597
13513SOL    HW142546   5.703   3.556   7.570
13513SOL    HW242547   5.592   3.605   7.661
13514SOL     OW42548  10.826   4.349  10.728
13514SOL    HW142549  10.828   4.263  10.771
13514SOL    HW242550  10.735   4.360  10.702
13515SOL     OW42551   3.579   6.798   6.581
13515SOL    HW142552   3.538   6.828   6.662
13515SOL    HW242553   3.548   6.859   6.514
13516SOL     OW42554   4.323   9.107   3.556
13516SOL    HW142555   4.394   9.162   3.588
13516SOL    HW242556   4.252   9.168   3.536
13517SOL     OW42557   6.883   7.315   9.206
13517SOL    HW142558   6.807   7.257   9.214
13517SOL    HW242559   6.910   7.307   9.114
13518SOL     OW42560   1.915  10.459   4.433
13518SOL    HW142561   1.912  10.496   4.344
13518SOL    HW242562   1.860  10.518   4.485
13519SOL     OW42563   8.392   5.868   3.964
13519SOL    HW142564   8.436   5.796   4.009
13519SOL    HW242565   8.384   5.937   4.029
13520SOL     OW42566   7.162   2.646   9.202
13520SOL    HW142567   7.225   2.712   9.174
13520SOL    HW242568   7.190   2.622   9.290
13521SOL     OW42569   8.807   5.463   2.460
13521SOL    HW142570   8.858   5.454   2.379
13521SOL    HW242571   8.804   5.557   2.476
13522SOL     OW42572  10.098   5.865   1.773
13522SOL    HW142573  10.068   5.948   1.810
13522SOL    HW242574  10.047   5.798   1.818
13523SOL     OW42575   0.131   6.556   9.017
13523SOL    HW142576   0.123   6.605   9.098
13523SOL    HW242577   0.225   6.539   9.008
13524SOL     OW42578  10.921   8.408   9.652
13524SOL    HW142579  10.879   8.406   9.738
13524SOL    HW242580  10.881   8.482   9.607
13525SOL     OW42581   1.787   5.871   4.681
13525SOL    HW142582   1.701   5.877   4.639
13525SOL    HW242583   1.840   5.819   4.620
13526SOL     OW42584   1.729   7.970   8.085
13526SOL    HW142585   1.720   7.886   8.130
13526SOL    HW242586   1.811   7.962   8.036
13527SOL     OW42587   6.061   0.136   8.831
13527SOL    HW142588   6.077   0.153   8.924
13527SOL    HW242589   5.999   0.063   8.830
13528SOL     OW42590   9.593   6.835   9.546
13528SOL    HW142591   9.536   6.896   9.592
13528SOL    HW242592   9.613   6.767   9.610
13529SOL     OW42593   1.798   7.153   6.005
13529SOL    HW142594   1.870   7.090   6.000
13529SOL    HW242595   1.833   7.225   6.057
13530SOL     OW42596   1.661   7.563   8.051
13530SOL    HW142597   1.698   7.549   7.963
13530SOL    HW242598   1.737   7.585   8.105
13531SOL     OW42599   7.421   8.826   8.093
13531SOL    HW142600   7.505   8.812   8.137
13531SOL    HW242601   7.441   8.887   8.022
13532SOL     OW42602   4.562  10.723   4.401
13532SOL    HW142603   4.516  10.675   4.469
13532SOL    HW242604   4.636  10.764   4.446
13533SOL     OW42605   5.934  10.370  11.005
13533SOL    HW142606   5.883  10.297  11.040
13533SOL    HW242607   5.941  10.431  11.078
13534SOL     OW42608   3.741  10.107   3.370
13534SOL    HW142609   3.764  10.047   3.299
13534SOL    HW242610   3.752  10.055   3.449
13535SOL     OW42611   9.302   6.868   8.520
13535SOL    HW142612   9.383   6.877   8.571
13535SOL    HW242613   9.324   6.903   8.433
13536SOL     OW42614   9.581   6.420   7.672
13536SOL    HW142615   9.546   6.484   7.610
13536SOL    HW242616   9.507   6.397   7.727
13537SOL     OW42617   5.516   0.680   8.065
13537SOL    HW142618   5.582   0.618   8.096
13537SOL    HW242619   5.553   0.766   8.085
13538SOL     OW42620   6.994   0.223   8.672
13538SOL    HW142621   6.993   0.127   8.667
13538SOL    HW242622   7.061   0.250   8.609
13539SOL     OW42623   0.389   8.580   0.067
13539SOL    HW142624   0.417   8.609   0.154
13539SOL    HW242625   0.394   8.484   0.072
13540SOL     OW42626   9.123   3.163   7.509
13540SOL    HW142627   9.078   3.247   7.510
13540SOL    HW242628   9.077   3.112   7.442
13541SOL     OW42629   0.960  11.027  10.434
13541SOL    HW142630   0.894  10.957  10.432
13541SOL    HW242631   1.011  11.010  10.513
13542SOL     OW42632   0.314   2.400   7.033
13542SOL    HW142633   0.349   2.475   7.080
13542SOL    HW242634   0.220   2.417   7.027
13543SOL     OW42635   9.169   0.050  10.168
13543SOL    HW142636   9.103   0.060  10.099
13543SOL    HW242637   9.229  -0.017  10.134
13544SOL     OW42638  10.632   7.328   7.495
13544SOL    HW142639  10.609   7.299   7.583
13544SOL    HW242640  10.728   7.321   7.492
13545SOL     OW42641   3.003   6.197   0.614
13545SOL    HW142642   3.056   6.204   0.693
13545SOL    HW242643   2.969   6.107   0.616
13546SOL     OW42644   9.088   8.312  10.027
13546SOL    HW142645   9.050   8.389   9.985
13546SOL    HW242646   9.040   8.238   9.989
13547SOL     OW42647   9.507   4.550   1.621
13547SOL    HW142648   9.474   4.624   1.672
13547SOL    HW242649   9.598   4.541   1.648
13548SOL     OW42650   3.959   2.713   6.183
13548SOL    HW142651   3.937   2.771   6.255
13548SOL    HW242652   3.884   2.654   6.175
13549SOL     OW42653   2.488   6.918  10.016
13549SOL    HW142654   2.511   7.007  10.040
13549SOL    HW242655   2.535   6.863  10.079
13550SOL     OW42656   2.058   4.233   9.755
13550SOL    HW142657   2.107   4.196   9.828
13550SOL    HW242658   2.004   4.301   9.794
13551SOL     OW42659   8.033   0.674   7.986
13551SOL    HW142660   7.978   0.745   7.953
13551SOL    HW242661   8.108   0.718   8.026
13552SOL     OW42662   1.799   7.225   0.668
13552SOL    HW142663   1.821   7.262   0.753
13552SOL    HW242664   1.705   7.241   0.658
13553SOL     OW42665   5.607   9.501   1.292
13553SOL    HW142666   5.696   9.472   1.273
13553SOL    HW242667   5.607   9.518   1.386
13554SOL     OW42668   1.083   3.420   3.269
13554SOL    HW142669   1.003   3.472   3.265
13554SOL    HW242670   1.069   3.359   3.342
13555SOL     OW42671   0.284   1.786   9.937
13555SOL    HW142672   0.322   1.700   9.958
13555SOL    HW242673   0.211   1.795   9.998
13556SOL     OW42674   0.927  10.335   4.408
13556SOL    HW142675   0.863  10.367   4.470
13556SOL    HW242676   1.008  10.379   4.432
13557SOL     OW42677   1.083   7.390   1.921
13557SOL    HW142678   1.054   7.308   1.961
13557SOL    HW242679   1.165   7.411   1.965
13558SOL     OW42680   0.498   4.461  10.063
13558SOL    HW142681   0.563   4.494  10.125
13558SOL    HW242682   0.417   4.456  10.113
13559SOL     OW42683   0.511   9.733   2.956
13559SOL    HW142684   0.595   9.778   2.945
13559SOL    HW242685   0.484   9.711   2.866
13560SOL     OW42686   2.639   5.595   0.801
13560SOL    HW142687   2.609   5.590   0.891
13560SOL    HW242688   2.695   5.518   0.790
13561SOL     OW42689   0.418   3.450   1.983
13561SOL    HW142690   0.351   3.517   1.973
13561SOL    HW242691   0.487   3.475   1.921
13562SOL     OW42692   1.531   0.156  10.887
13562SOL    HW142693   1.583   0.075  10.879
13562SOL    HW242694   1.468   0.151  10.815
13563SOL     OW42695   5.295   0.781   9.402
13563SOL    HW142696   5.234   0.707   9.399
13563SOL    HW242697   5.343   0.769   9.484
13564SOL     OW42698   0.280   9.656   6.081
13564SOL    HW142699   0.297   9.707   6.159
13564SOL    HW242700   0.184   9.648   6.078
13565SOL     OW42701  10.150   6.809   0.258
13565SOL    HW142702  10.144   6.854   0.342
13565SOL    HW242703  10.203   6.731   0.276
13566SOL     OW42704   7.905   7.032   6.270
13566SOL    HW142705   7.932   7.124   6.271
13566SOL    HW242706   7.943   6.995   6.349
13567SOL     OW42707   7.715   9.073   7.694
13567SOL    HW142708   7.759   9.074   7.609
13567SOL    HW242709   7.723   9.163   7.726
13568SOL     OW42710   1.711   3.891   9.541
13568SOL    HW142711   1.628   3.844   9.531
13568SOL    HW242712   1.687   3.973   9.583
13569SOL     OW42713   2.723   8.204   9.771
13569SOL    HW142714   2.678   8.125   9.802
13569SOL    HW242715   2.796   8.216   9.832
13570SOL     OW42716   5.728   8.236   9.131
13570SOL    HW142717   5.700   8.146   9.151
13570SOL    HW242718   5.757   8.231   9.040
13571SOL     OW42719  10.420   8.487   9.766
13571SOL    HW142720  10.349   8.432   9.800
13571SOL    HW242721  10.495   8.467   9.822
13572SOL     OW42722  10.314   3.462   3.508
13572SOL    HW142723  10.385   3.497   3.562
13572SOL    HW242724  10.312   3.519   3.431
13573SOL     OW42725   4.250   9.877   3.034
13573SOL    HW142726   4.318   9.829   3.080
13573SOL    HW242727   4.268   9.859   2.941
13574SOL     OW42728   8.874   6.765   5.940
13574SOL    HW142729   8.887   6.774   6.034
13574SOL    HW242730   8.946   6.709   5.911
13575SOL     OW42731   4.653   4.549   1.062
13575SOL    HW142732   4.708   4.524   0.987
13575SOL    HW242733   4.635   4.642   1.049
13576SOL     OW42734   6.203   9.204   1.796
13576SOL    HW142735   6.129   9.260   1.819
13576SOL    HW242736   6.275   9.235   1.851
13577SOL     OW42737   5.592   0.180  10.395
13577SOL    HW142738   5.606   0.248  10.460
13577SOL    HW242739   5.666   0.120  10.407
13578SOL     OW42740   0.499   8.352   7.428
13578SOL    HW142741   0.501   8.422   7.493
13578SOL    HW242742   0.591   8.325   7.419
13579SOL     OW42743   2.324   8.543   6.246
13579SOL    HW142744   2.362   8.542   6.158
13579SOL    HW242745   2.238   8.584   6.234
13580SOL     OW42746   1.668   5.267   4.678
13580SOL    HW142747   1.753   5.302   4.704
13580SOL    HW242748   1.687   5.208   4.605
13581SOL     OW42749   4.859  10.618   1.009
13581SOL    HW142750   4.884  10.634   0.918
13581SOL    HW242751   4.862  10.523   1.018
13582SOL     OW42752   0.394   7.263   2.031
13582SOL    HW142753   0.478   7.300   2.006
13582SOL    HW242754   0.385   7.284   2.124
13583SOL     OW42755   4.459   6.365   8.526
13583SOL    HW142756   4.470   6.294   8.463
13583SOL    HW242757   4.364   6.373   8.537
13584SOL     OW42758   0.154   5.196  10.629
13584SOL    HW142759   0.196   5.266  10.678
13584SOL    HW242760   0.174   5.216  10.537
13585SOL     OW42761   0.297   9.423   1.021
13585SOL    HW142762   0.304   9.379   0.936
13585SOL    HW242763   0.203   9.427   1.038
13586SOL     OW42764   4.491   9.551   5.277
13586SOL    HW142765   4.576   9.582   5.309
13586SOL    HW242766   4.453   9.626   5.231
13587SOL     OW42767   5.177   3.826  10.235
13587SOL    HW142768   5.269   3.851  10.241
13587SOL    HW242769   5.177   3.750  10.177
13588SOL     OW42770   2.490   8.169   0.945
13588SOL    HW142771   2.446   8.093   0.907
13588SOL    HW242772   2.540   8.133   1.018
13589SOL     OW42773   7.335   7.245   1.981
13589SOL    HW142774   7.356   7.152   1.993
13589SOL    HW242775   7.351   7.285   2.066
13590SOL     OW42776   4.406   8.985  10.129
13590SOL    HW142777   4.360   8.998  10.212
13590SOL    HW242778   4.359   8.913  10.086
13591SOL     OW42779   3.435   3.741   0.356
13591SOL    HW142780   3.468   3.747   0.445
13591SOL    HW242781   3.453   3.650   0.330
13592SOL     OW42782   5.845   8.185   9.832
13592SOL    HW142783   5.878   8.152   9.915
13592SOL    HW242784   5.919   8.233   9.794
13593SOL     OW42785   6.053   5.745   1.835
13593SOL    HW142786   6.039   5.677   1.768
13593SOL    HW242787   6.060   5.826   1.785
13594SOL     OW42788   2.443   1.299   9.843
13594SOL    HW142789   2.448   1.394   9.835
13594SOL    HW242790   2.468   1.281   9.933
13595SOL     OW42791   5.844   5.510  10.313
13595SOL    HW142792   5.769   5.458  10.282
13595SOL    HW242793   5.919   5.474  10.265
13596SOL     OW42794   2.609   6.187   6.319
13596SOL    HW142795   2.603   6.214   6.227
13596SOL    HW242796   2.703   6.174   6.334
13597SOL     OW42797   5.865   7.025   6.825
13597SOL    HW142798   5.857   6.942   6.778
13597SOL    HW242799   5.866   7.000   6.917
13598SOL     OW42800   3.501   5.351   6.529
13598SOL    HW142801   3.576   5.408   6.545
13598SOL    HW242802   3.537   5.262   6.534
13599SOL     OW42803   8.480   9.343   8.647
13599SOL    HW142804   8.433   9.367   8.567
13599SOL    HW242805   8.570   9.373   8.632
13600SOL     OW42806   2.568   7.221   2.021
13600SOL    HW142807   2.542   7.133   2.049
13600SOL    HW242808   2.610   7.208   1.936
13601SOL     OW42809   2.024   8.384   0.744
13601SOL    HW142810   2.077   8.387   0.824
13601SOL    HW242811   2.080   8.338   0.681
13602SOL     OW42812  10.119   3.874   5.870
13602SOL    HW142813  10.154   3.962   5.882
13602SOL    HW242814  10.055   3.883   5.799
13603SOL     OW42815   9.903   3.500   1.267
13603SOL    HW142816   9.883   3.431   1.204
13603SOL    HW242817   9.819   3.542   1.284
13604SOL     OW42818   6.629   7.027   9.455
13604SOL    HW142819   6.576   6.952   9.425
13604SOL    HW242820   6.575   7.071   9.520
13605SOL     OW42821   4.730   0.172   9.508
13605SOL    HW142822   4.699   0.097   9.559
13605SOL    HW242823   4.748   0.240   9.573
13606SOL     OW42824   2.497  10.671   7.829
13606SOL    HW142825   2.525  10.580   7.838
13606SOL    HW242826   2.475  10.698   7.918
13607SOL     OW42827   7.732   8.525   6.845
13607SOL    HW142828   7.702   8.496   6.759
13607SOL    HW242829   7.806   8.468   6.865
13608SOL     OW42830   3.064   4.949   0.873
13608SOL    HW142831   3.025   4.929   0.787
13608SOL    HW242832   3.098   5.038   0.864
13609SOL     OW42833   7.458   7.533   4.648
13609SOL    HW142834   7.506   7.586   4.711
13609SOL    HW242835   7.437   7.593   4.576
13610SOL     OW42836   3.293   1.017   8.733
13610SOL    HW142837   3.223   1.073   8.765
13610SOL    HW242838   3.273   1.004   8.640
13611SOL     OW42839   5.407   3.170   8.477
13611SOL    HW142840   5.446   3.149   8.392
13611SOL    HW242841   5.385   3.263   8.471
13612SOL     OW42842   4.762   8.068   4.826
13612SOL    HW142843   4.783   8.032   4.912
13612SOL    HW242844   4.692   8.012   4.793
13613SOL     OW42845   0.522   7.164   6.949
13613SOL    HW142846   0.466   7.152   6.872
13613SOL    HW242847   0.465   7.147   7.023
13614SOL     OW42848   3.210   5.665   1.319
13614SOL    HW142849   3.124   5.682   1.358
13614SOL    HW242850   3.191   5.611   1.242
13615SOL     OW42851   6.623   6.563   4.272
13615SOL    HW142852   6.681   6.618   4.324
13615SOL    HW242853   6.566   6.520   4.336
13616SOL     OW42854   9.453   0.277   2.140
13616SOL    HW142855   9.441   0.329   2.061
13616SOL    HW242856   9.397   0.319   2.205
13617SOL     OW42857   0.991   3.126   4.443
13617SOL    HW142858   0.983   3.105   4.536
13617SOL    HW242859   1.043   3.206   4.441
13618SOL     OW42860   7.830   2.476   9.424
13618SOL    HW142861   7.786   2.400   9.462
13618SOL    HW242862   7.908   2.488   9.478
13619SOL     OW42863   9.237   6.698   5.440
13619SOL    HW142864   9.202   6.786   5.451
13619SOL    HW242865   9.224   6.678   5.347
13620SOL     OW42866   3.769   5.335   6.951
13620SOL    HW142867   3.856   5.303   6.975
13620SOL    HW242868   3.781   5.428   6.936
13621SOL     OW42869   2.743   6.343   1.061
13621SOL    HW142870   2.745   6.428   1.018
13621SOL    HW242871   2.791   6.285   1.001
13622SOL     OW42872   9.807   2.812   6.337
13622SOL    HW142873   9.748   2.784   6.407
13622SOL    HW242874   9.749   2.844   6.268
13623SOL     OW42875  10.567   7.842   4.832
13623SOL    HW142876  10.550   7.778   4.762
13623SOL    HW242877  10.499   7.908   4.821
13624SOL     OW42878   5.699   7.978   0.909
13624SOL    HW142879   5.694   8.068   0.879
13624SOL    HW242880   5.672   7.981   1.000
13625SOL     OW42881   0.453   9.193   7.865
13625SOL    HW142882   0.483   9.211   7.776
13625SOL    HW242883   0.450   9.279   7.907
13626SOL     OW42884   3.769   4.125  11.006
13626SOL    HW142885   3.688   4.168  11.032
13626SOL    HW242886   3.809   4.185  10.943
13627SOL     OW42887   6.611   2.849  11.100
13627SOL    HW142888   6.533   2.858  11.154
13627SOL    HW242889   6.630   2.938  11.070
13628SOL     OW42890   1.995   8.683   1.093
13628SOL    HW142891   2.016   8.608   1.037
13628SOL    HW242892   1.902   8.700   1.076
13629SOL     OW42893   9.082   7.645   2.007
13629SOL    HW142894   9.027   7.597   2.068
13629SOL    HW242895   9.054   7.736   2.015
13630SOL     OW42896   8.292   5.828   1.891
13630SOL    HW142897   8.341   5.836   1.973
13630SOL    HW242898   8.274   5.918   1.864
13631SOL     OW42899   4.271   8.985   7.687
13631SOL    HW142900   4.213   8.993   7.762
13631SOL    HW242901   4.358   8.972   7.724
13632SOL     OW42902   5.305   6.651   2.585
13632SOL    HW142903   5.395   6.619   2.597
13632SOL    HW242904   5.296   6.722   2.648
13633SOL     OW42905   5.019   6.931   5.295
13633SOL    HW142906   5.024   7.015   5.340
13633SOL    HW242907   4.988   6.870   5.362
13634SOL     OW42908   5.074   0.410   8.676
13634SOL    HW142909   5.022   0.403   8.596
13634SOL    HW242910   5.155   0.363   8.656
13635SOL     OW42911   5.180   4.658   9.954
13635SOL    HW142912   5.262   4.695   9.988
13635SOL    HW242913   5.202   4.629   9.865
13636SOL     OW42914   8.337   3.691   2.094
13636SOL    HW142915   8.417   3.663   2.139
13636SOL    HW242916   8.368   3.726   2.010
13637SOL     OW42917   6.529   4.028   1.581
13637SOL    HW142918   6.528   3.936   1.555
13637SOL    HW242919   6.621   4.045   1.601
13638SOL     OW42920   1.210   2.296   3.537
13638SOL    HW142921   1.272   2.299   3.464
13638SOL    HW242922   1.137   2.350   3.508
13639SOL     OW42923  10.340   5.388   0.617
13639SOL    HW142924  10.268   5.393   0.679
13639SOL    HW242925  10.416   5.364   0.670
13640SOL     OW42926   6.119   8.872  10.393
13640SOL    HW142927   6.071   8.848  10.313
13640SOL    HW242928   6.211   8.853  10.372
13641SOL     OW42929   0.919   9.085   0.128
13641SOL    HW142930   0.930   9.095   0.034
13641SOL    HW242931   0.863   9.008   0.138
13642SOL     OW42932   1.874  10.273   1.009
13642SOL    HW142933   1.899  10.278   1.101
13642SOL    HW242934   1.792  10.224   1.009
13643SOL     OW42935   7.230   0.992   8.521
13643SOL    HW142936   7.288   1.066   8.537
13643SOL    HW242937   7.247   0.932   8.593
13644SOL     OW42938  10.357   2.534   1.421
13644SOL    HW142939  10.448   2.505   1.412
13644SOL    HW242940  10.348   2.604   1.356
13645SOL     OW42941   5.663   7.133   1.822
13645SOL    HW142942   5.687   7.156   1.732
13645SOL    HW242943   5.607   7.056   1.813
13646SOL     OW42944   7.435   4.160   1.295
13646SOL    HW142945   7.516   4.119   1.263
13646SOL    HW242946   7.459   4.251   1.311
13647SOL     OW42947   3.973   1.081   9.894
13647SOL    HW142948   4.031   1.025   9.842
13647SOL    HW242949   3.895   1.028   9.908
13648SOL     OW42950   5.335   1.319   4.432
13648SOL    HW142951   5.262   1.380   4.434
13648SOL    HW242952   5.386   1.339   4.510
13649SOL     OW42953   2.178   7.776   1.732
13649SOL    HW142954   2.219   7.852   1.773
13649SOL    HW242955   2.232   7.702   1.759
13650SOL     OW42956   3.606   8.095   1.294
13650SOL    HW142957   3.622   8.054   1.208
13650SOL    HW242958   3.647   8.035   1.357
13651SOL     OW42959   3.385  10.713   9.793
13651SOL    HW142960   3.383  10.787   9.853
13651SOL    HW242961   3.361  10.638   9.847
13652SOL     OW42962   8.760   6.542   5.714
13652SOL    HW142963   8.813   6.609   5.671
13652SOL    HW242964   8.745   6.575   5.802
13653SOL     OW42965   0.735   5.384   1.201
13653SOL    HW142966   0.700   5.378   1.290
13653SOL    HW242967   0.829   5.398   1.213
13654SOL     OW42968   1.812   8.867   2.928
13654SOL    HW142969   1.811   8.867   2.832
13654SOL    HW242970   1.820   8.959   2.952
13655SOL     OW42971   7.797  10.220  10.153
13655SOL    HW142972   7.858  10.163  10.105
13655SOL    HW242973   7.716  10.216  10.101
13656SOL     OW42974   6.913   9.567   1.632
13656SOL    HW142975   7.007   9.576   1.649
13656SOL    HW242976   6.875   9.543   1.716
13657SOL     OW42977   1.943   6.026   4.061
13657SOL    HW142978   1.977   6.109   4.027
13657SOL    HW242979   2.018   5.986   4.106
13658SOL     OW42980  10.805  10.810   3.419
13658SOL    HW142981  10.812  10.894   3.373
13658SOL    HW242982  10.712  10.803   3.442
13659SOL     OW42983  10.754  10.874   0.392
13659SOL    HW142984  10.775  10.964   0.416
13659SOL    HW242985  10.752  10.875   0.296
13660SOL     OW42986   3.264   6.713   0.381
13660SOL    HW142987   3.185   6.766   0.373
13660SOL    HW242988   3.330   6.773   0.416
13661SOL     OW42989   6.353   7.895   1.018
13661SOL    HW142990   6.362   7.817   0.962
13661SOL    HW242991   6.389   7.868   1.102
13662SOL     OW42992   6.040   7.447   9.136
13662SOL    HW142993   6.056   7.536   9.107
13662SOL    HW242994   6.023   7.455   9.230
13663SOL     OW42995   3.117  10.004   0.293
13663SOL    HW142996   3.130  10.051   0.211
13663SOL    HW242997   3.030   9.965   0.285
13664SOL     OW42998   3.538   8.569   1.401
13664SOL    HW142999   3.525   8.658   1.368
13664SOL    HW243000   3.608   8.577   1.466
13665SOL     OW43001   3.059  10.666   7.103
13665SOL    HW143002   3.144  10.680   7.060
13665SOL    HW243003   3.002  10.733   7.066
13666SOL     OW43004   4.066   0.048   0.388
13666SOL    HW143005   4.055  -0.040   0.352
13666SOL    HW243006   4.145   0.042   0.441
13667SOL     OW43007   4.108   2.584   2.140
13667SOL    HW143008   4.019   2.591   2.107
13667SOL    HW243009   4.143   2.505   2.098
13668SOL     OW43010  11.084   8.879   7.644
13668SOL    HW143011  11.112   8.870   7.552
13668SOL    HW243012  11.080   8.973   7.659
13669SOL     OW43013   3.211   2.803  10.311
13669SOL    HW143014   3.154   2.856  10.366
13669SOL    HW243015   3.178   2.713  10.321
13670SOL     OW43016   2.770   2.438   1.838
13670SOL    HW143017   2.847   2.426   1.782
13670SOL    HW243018   2.753   2.532   1.836
13671SOL     OW43019   8.485   4.135   9.705
13671SOL    HW143020   8.418   4.095   9.760
13671SOL    HW243021   8.560   4.146   9.763
13672SOL     OW43022   3.059   2.247   0.781
13672SOL    HW143023   3.035   2.331   0.742
13672SOL    HW243024   3.154   2.241   0.769
13673SOL     OW43025   0.003   9.126   7.074
13673SOL    HW143026   0.023   9.131   6.980
13673SOL    HW243027  -0.066   9.191   7.087
13674SOL     OW43028   2.864   7.131   9.522
13674SOL    HW143029   2.771   7.115   9.508
13674SOL    HW243030   2.868   7.190   9.596
13675SOL     OW43031   2.526   1.326  10.355
13675SOL    HW143032   2.562   1.292  10.437
13675SOL    HW243033   2.553   1.418  10.352
13676SOL     OW43034   5.814   6.759   2.525
13676SOL    HW143035   5.834   6.775   2.617
13676SOL    HW243036   5.894   6.720   2.489
13677SOL     OW43037   2.414  10.611   9.552
13677SOL    HW143038   2.325  10.589   9.579
13677SOL    HW243039   2.435  10.692   9.599
13678SOL     OW43040   0.887   2.979   2.096
13678SOL    HW143041   0.850   3.048   2.150
13678SOL    HW243042   0.893   2.903   2.154
13679SOL     OW43043   1.556   1.633   4.367
13679SOL    HW143044   1.466   1.624   4.396
13679SOL    HW243045   1.606   1.646   4.447
13680SOL     OW43046   3.473   0.118   9.632
13680SOL    HW143047   3.544   0.173   9.600
13680SOL    HW243048   3.512   0.067   9.703
13681SOL     OW43049   3.346   5.387   7.987
13681SOL    HW143050   3.417   5.428   8.036
13681SOL    HW243051   3.298   5.336   8.052
13682SOL     OW43052   2.967   4.384   0.484
13682SOL    HW143053   3.038   4.322   0.466
13682SOL    HW243054   2.888   4.329   0.489
13683SOL     OW43055   6.579   3.852   2.785
13683SOL    HW143056   6.548   3.913   2.851
13683SOL    HW243057   6.560   3.765   2.821
13684SOL     OW43058  10.004   3.615   9.459
13684SOL    HW143059   9.998   3.701   9.499
13684SOL    HW243060   9.913   3.591   9.440
13685SOL     OW43061  10.648   8.976   8.635
13685SOL    HW143062  10.675   8.969   8.726
13685SOL    HW243063  10.589   9.051   8.632
13686SOL     OW43064   6.011   8.918   2.075
13686SOL    HW143065   5.968   8.866   2.007
13686SOL    HW243066   6.091   8.951   2.033
13687SOL     OW43067  10.708   1.980   3.519
13687SOL    HW143068  10.635   1.918   3.514
13687SOL    HW243069  10.669   2.065   3.499
13688SOL     OW43070   5.879   6.329   0.821
13688SOL    HW143071   5.946   6.331   0.889
13688SOL    HW243072   5.817   6.397   0.846
13689SOL     OW43073   9.927   5.205   5.618
13689SOL    HW143074   9.956   5.142   5.552
13689SOL    HW243075   9.833   5.189   5.627
13690SOL     OW43076  10.683   8.891   3.447
13690SOL    HW143077  10.709   8.979   3.473
13690SOL    HW243078  10.651   8.901   3.357
13691SOL     OW43079   9.132   4.626   5.011
13691SOL    HW143080   9.121   4.572   4.932
13691SOL    HW243081   9.195   4.578   5.064
13692SOL     OW43082   8.388   8.742   8.682
13692SOL    HW143083   8.422   8.814   8.629
13692SOL    HW243084   8.411   8.765   8.772
13693SOL     OW43085   2.056   1.231   4.002
13693SOL    HW143086   2.121   1.188   4.057
13693SOL    HW243087   1.988   1.165   3.989
13694SOL     OW43088   1.699   8.212  10.860
13694SOL    HW143089   1.719   8.119  10.872
13694SOL    HW243090   1.649   8.236  10.938
13695SOL     OW43091   5.651   2.042   8.416
13695SOL    HW143092   5.583   2.088   8.368
13695SOL    HW243093   5.603   1.984   8.475
13696SOL     OW43094  10.199   4.187   2.604
13696SOL    HW143095  10.132   4.205   2.669
13696SOL    HW243096  10.180   4.247   2.532
13697SOL     OW43097   3.289   4.921   8.249
13697SOL    HW143098   3.378   4.904   8.280
13697SOL    HW243099   3.238   4.937   8.328
13698SOL     OW43100   4.611   9.866   0.311
13698SOL    HW143101   4.705   9.852   0.301
13698SOL    HW243102   4.589   9.929   0.242
13699SOL     OW43103   5.921   4.961   3.069
13699SOL    HW143104   5.949   5.051   3.086
13699SOL    HW243105   5.945   4.913   3.148
13700SOL     OW43106  10.495   7.505   9.064
13700SOL    HW143107  10.444   7.585   9.056
13700SOL    HW243108  10.552   7.504   8.986
13701SOL     OW43109   7.559  10.484   0.075
13701SOL    HW143110   7.557  10.409   0.016
13701SOL    HW243111   7.564  10.445   0.163
13702SOL     OW43112   8.500   7.417   8.642
13702SOL    HW143113   8.527   7.443   8.554
13702SOL    HW243114   8.443   7.487   8.672
13703SOL     OW43115   1.746   3.789   5.107
13703SOL    HW143116   1.816   3.845   5.073
13703SOL    HW243117   1.759   3.705   5.063
13704SOL     OW43118   5.442   1.146   0.394
13704SOL    HW143119   5.537   1.160   0.401
13704SOL    HW243120   5.412   1.216   0.336
13705SOL     OW43121   8.024  11.089   9.244
13705SOL    HW143122   7.951  11.150   9.256
13705SOL    HW243123   7.994  11.008   9.285
13706SOL     OW43124   2.035   8.270   2.120
13706SOL    HW143125   2.019   8.218   2.040
13706SOL    HW243126   2.112   8.228   2.160
13707SOL     OW43127   8.766   5.289   6.891
13707SOL    HW143128   8.860   5.296   6.905
13707SOL    HW243129   8.758   5.260   6.800
13708SOL     OW43130   6.432   1.180   9.783
13708SOL    HW143131   6.390   1.261   9.755
13708SOL    HW243132   6.374   1.111   9.750
13709SOL     OW43133   0.356   2.221   9.797
13709SOL    HW143134   0.264   2.245   9.789
13709SOL    HW243135   0.355   2.125   9.799
13710SOL     OW43136   0.484   9.066   5.366
13710SOL    HW143137   0.450   9.121   5.436
13710SOL    HW243138   0.540   9.124   5.314
13711SOL     OW43139   1.070  10.044  10.880
13711SOL    HW143140   1.059   9.967  10.824
13711SOL    HW243141   1.138  10.019  10.942
13712SOL     OW43142   3.564  10.920   8.066
13712SOL    HW143143   3.597  10.891   8.151
13712SOL    HW243144   3.557  10.840   8.014
13713SOL     OW43145   0.822   6.294   8.635
13713SOL    HW143146   0.885   6.359   8.602
13713SOL    HW243147   0.859   6.264   8.718
13714SOL     OW43148   5.714   9.538   0.772
13714SOL    HW143149   5.666   9.610   0.732
13714SOL    HW243150   5.647   9.485   0.815
13715SOL     OW43151   3.774   4.034   2.401
13715SOL    HW143152   3.697   4.052   2.455
13715SOL    HW243153   3.840   4.097   2.430
13716SOL     OW43154   2.470   7.083   1.624
13716SOL    HW143155   2.469   7.055   1.532
13716SOL    HW243156   2.562   7.104   1.641
13717SOL     OW43157   5.323   0.979   1.130
13717SOL    HW143158   5.268   0.901   1.139
13717SOL    HW243159   5.407   0.953   1.168
13718SOL     OW43160   7.980  10.415   2.475
13718SOL    HW143161   7.975  10.503   2.512
13718SOL    HW243162   7.894  10.400   2.436
13719SOL     OW43163  10.826   6.503   9.602
13719SOL    HW143164  10.904   6.480   9.551
13719SOL    HW243165  10.753   6.463   9.554
13720SOL     OW43166  10.307   3.902   5.540
13720SOL    HW143167  10.242   3.972   5.545
13720SOL    HW243168  10.390   3.943   5.565
13721SOL     OW43169   4.899   8.829   0.400
13721SOL    HW143170   4.814   8.813   0.441
13721SOL    HW243171   4.946   8.746   0.410
13722SOL     OW43172   4.363   6.684   6.271
13722SOL    HW143173   4.435   6.662   6.331
13722SOL    HW243174   4.287   6.694   6.327
13723SOL     OW43175   4.257   8.475  10.535
13723SOL    HW143176   4.168   8.482  10.499
13723SOL    HW243177   4.309   8.438  10.463
13724SOL     OW43178   0.801   8.826   0.006
13724SOL    HW143179   0.746   8.747   0.004
13724SOL    HW243180   0.846   8.826  -0.078
13725SOL     OW43181   2.525   9.046   7.183
13725SOL    HW143182   2.573   8.985   7.239
13725SOL    HW243183   2.593   9.102   7.145
13726SOL     OW43184   6.845   0.648   9.212
13726SOL    HW143185   6.935   0.616   9.216
13726SOL    HW243186   6.846   0.713   9.142
13727SOL     OW43187   5.049   8.442   7.750
13727SOL    HW143188   5.024   8.372   7.690
13727SOL    HW243189   5.134   8.415   7.784
13728SOL     OW43190   2.522   9.340   2.172
13728SOL    HW143191   2.540   9.355   2.079
13728SOL    HW243192   2.593   9.385   2.218
13729SOL     OW43193  10.858   2.899   1.553
13729SOL    HW143194  10.892   2.982   1.519
13729SOL    HW243195  10.781   2.881   1.499
13730SOL     OW43196   3.299   0.287   0.231
13730SOL    HW143197   3.342   0.288   0.316
13730SOL    HW243198   3.207   0.307   0.250
13731SOL     OW43199   6.444   4.291   4.246
13731SOL    HW143200   6.513   4.282   4.179
13731SOL    HW243201   6.373   4.337   4.201
13732SOL     OW43202   2.967   6.896   3.451
13732SOL    HW143203   3.045   6.851   3.485
13732SOL    HW243204   2.963   6.978   3.499
13733SOL     OW43205   4.918   7.996   7.797
13733SOL    HW143206   4.840   7.998   7.851
13733SOL    HW243207   4.966   7.919   7.827
13734SOL     OW43208   2.322   5.663   4.348
13734SOL    HW143209   2.398   5.605   4.341
13734SOL    HW243210   2.357   5.750   4.331
13735SOL     OW43211   1.157  10.603   9.153
13735SOL    HW143212   1.071  10.612   9.113
13735SOL    HW243213   1.189  10.693   9.162
13736SOL     OW43214   3.696   9.914   1.074
13736SOL    HW143215   3.730   9.952   1.155
13736SOL    HW243216   3.747   9.955   1.004
13737SOL     OW43217   0.582   7.939   0.506
13737SOL    HW143218   0.676   7.955   0.519
13737SOL    HW243219   0.576   7.844   0.491
13738SOL     OW43220   5.256   4.282  11.035
13738SOL    HW143221   5.241   4.222  10.962
13738SOL    HW243222   5.174   4.331  11.043
13739SOL     OW43223   5.211   7.393   1.101
13739SOL    HW143224   5.131   7.365   1.056
13739SOL    HW243225   5.200   7.363   1.191
13740SOL     OW43226   3.904   3.090   0.023
13740SOL    HW143227   3.824   3.086   0.076
13740SOL    HW243228   3.975   3.092   0.088
13741SOL     OW43229   2.909  10.918   3.029
13741SOL    HW143230   2.932  10.836   3.073
13741SOL    HW243231   2.859  10.890   2.952
13742SOL     OW43232   2.856   8.147  11.089
13742SOL    HW143233   2.805   8.205  11.032
13742SOL    HW243234   2.937   8.195  11.106
13743SOL     OW43235   1.983   2.076   9.102
13743SOL    HW143236   2.016   2.031   9.024
13743SOL    HW243237   2.013   2.022   9.175
13744SOL     OW43238  10.220   8.323   0.446
13744SOL    HW143239  10.186   8.280   0.367
13744SOL    HW243240  10.299   8.368   0.416
13745SOL     OW43241   4.982  11.086   7.663
13745SOL    HW143242   5.039  11.157   7.633
13745SOL    HW243243   4.955  11.042   7.582
13746SOL     OW43244   8.184  11.006   2.474
13746SOL    HW143245   8.167  11.099   2.459
13746SOL    HW243246   8.279  11.001   2.485
13747SOL     OW43247   8.382   8.174   8.437
13747SOL    HW143248   8.360   8.264   8.415
13747SOL    HW243249   8.457   8.181   8.496
13748SOL     OW43250   6.171   4.662   2.464
13748SOL    HW143251   6.261   4.695   2.463
13748SOL    HW243252   6.133   4.698   2.544
13749SOL     OW43253   5.943   7.682  10.205
13749SOL    HW143254   5.940   7.776  10.189
13749SOL    HW243255   5.868   7.664  10.261
13750SOL     OW43256   2.260   6.814   2.826
13750SOL    HW143257   2.267   6.892   2.881
13750SOL    HW243258   2.350   6.785   2.814
13751SOL     OW43259   5.471   6.621   3.361
13751SOL    HW143260   5.384   6.598   3.330
13751SOL    HW243261   5.462   6.709   3.397
13752SOL     OW43262   8.489   7.048   1.699
13752SOL    HW143263   8.483   7.051   1.603
13752SOL    HW243264   8.457   6.960   1.721
13753SOL     OW43265   3.989   2.093   9.892
13753SOL    HW143266   4.019   2.058   9.808
13753SOL    HW243267   3.924   2.159   9.868
13754SOL     OW43268   4.444   6.667   1.987
13754SOL    HW143269   4.436   6.573   1.969
13754SOL    HW243270   4.538   6.681   1.997
13755SOL     OW43271  10.078   8.010   7.561
13755SOL    HW143272  10.030   7.938   7.520
13755SOL    HW243273  10.010   8.072   7.586
13756SOL     OW43274   3.501   9.433   1.101
13756SOL    HW143275   3.435   9.384   1.051
13756SOL    HW243276   3.521   9.509   1.046
13757SOL     OW43277   8.948   6.817   3.666
13757SOL    HW143278   8.902   6.875   3.606
13757SOL    HW243279   8.979   6.874   3.736
13758SOL     OW43280   9.581   6.853   9.260
13758SOL    HW143281   9.623   6.767   9.259
13758SOL    HW243282   9.544   6.861   9.348
13759SOL     OW43283   8.142   9.710   1.670
13759SOL    HW143284   8.176   9.691   1.582
13759SOL    HW243285   8.218   9.744   1.718
13760SOL     OW43286   4.693   1.041   1.103
13760SOL    HW143287   4.610   1.059   1.147
13760SOL    HW243288   4.753   1.014   1.173
13761SOL     OW43289   2.020   7.687   7.585
13761SOL    HW143290   2.024   7.702   7.679
13761SOL    HW243291   1.984   7.768   7.549
13762SOL     OW43292  10.458  10.470   1.960
13762SOL    HW143293  10.464  10.375   1.955
13762SOL    HW243294  10.537  10.497   2.007
13763SOL     OW43295   9.050   5.154   1.912
13763SOL    HW143296   9.080   5.201   1.990
13763SOL    HW243297   8.963   5.121   1.935
13764SOL     OW43298   5.182   0.739   9.716
13764SOL    HW143299   5.159   0.648   9.694
13764SOL    HW243300   5.098   0.783   9.724
13765SOL     OW43301   2.190   7.333   2.681
13765SOL    HW143302   2.280   7.341   2.650
13765SOL    HW243303   2.143   7.404   2.637
13766SOL     OW43304   0.779   0.131   5.111
13766SOL    HW143305   0.782   0.146   5.016
13766SOL    HW243306   0.756   0.038   5.120
13767SOL     OW43307   7.509   8.487  10.734
13767SOL    HW143308   7.529   8.408  10.785
13767SOL    HW243309   7.588   8.541  10.741
13768SOL     OW43310   2.999  11.077   6.743
13768SOL    HW143311   3.064  11.138   6.778
13768SOL    HW243312   2.925  11.133   6.718
13769SOL     OW43313   7.268  11.034  10.347
13769SOL    HW143314   7.334  11.096  10.377
13769SOL    HW243315   7.318  10.968  10.298
13770SOL     OW43316   1.200   4.870   7.406
13770SOL    HW143317   1.113   4.898   7.434
13770SOL    HW243318   1.256   4.885   7.482
13771SOL     OW43319   1.545   5.157   3.839
13771SOL    HW143320   1.626   5.208   3.846
13771SOL    HW243321   1.482   5.216   3.798
13772SOL     OW43322   7.168   0.829   3.066
13772SOL    HW143323   7.143   0.910   3.109
13772SOL    HW243324   7.183   0.853   2.974
13773SOL     OW43325   3.804   6.054   4.342
13773SOL    HW143326   3.896   6.038   4.319
13773SOL    HW243327   3.791   6.147   4.324
13774SOL     OW43328   2.792   8.685   4.502
13774SOL    HW143329   2.776   8.698   4.595
13774SOL    HW243330   2.885   8.661   4.496
13775SOL     OW43331   3.405   2.793   8.593
13775SOL    HW143332   3.375   2.817   8.505
13775SOL    HW243333   3.367   2.706   8.608
13776SOL     OW43334   7.258  10.739   9.819
13776SOL    HW143335   7.206  10.671   9.776
13776SOL    HW243336   7.195  10.790   9.869
13777SOL     OW43337   5.292   2.912   6.208
13777SOL    HW143338   5.257   2.985   6.157
13777SOL    HW243339   5.385   2.910   6.186
13778SOL     OW43340   9.169  10.987   9.134
13778SOL    HW143341   9.169  10.924   9.062
13778SOL    HW243342   9.215  10.942   9.205
13779SOL     OW43343  10.753   7.158   2.197
13779SOL    HW143344  10.766   7.083   2.255
13779SOL    HW243345  10.825   7.217   2.218
13780SOL     OW43346   3.661   0.066   5.055
13780SOL    HW143347   3.625  -0.023   5.058
13780SOL    HW243348   3.751   0.056   5.085
13781SOL     OW43349   5.687   6.423   2.528
13781SOL    HW143350   5.779   6.404   2.511
13781SOL    HW243351   5.643   6.402   2.445
13782SOL     OW43352   3.689   6.565  10.049
13782SOL    HW143353   3.776   6.591  10.017
13782SOL    HW243354   3.697   6.471  10.066
13783SOL     OW43355  10.896   1.030   9.878
13783SOL    HW143356  10.887   1.108   9.824
13783SOL    HW243357  10.966   1.051   9.940
13784SOL     OW43358   8.450   7.777  10.199
13784SOL    HW143359   8.357   7.781  10.175
13784SOL    HW243360   8.469   7.683  10.206
13785SOL     OW43361   2.183   3.262   1.424
13785SOL    HW143362   2.088   3.251   1.431
13785SOL    HW243363   2.201   3.251   1.330
13786SOL     OW43364   4.479  10.457   7.422
13786SOL    HW143365   4.561  10.435   7.466
13786SOL    HW243366   4.458  10.545   7.452
13787SOL     OW43367   5.501  10.690   4.618
13787SOL    HW143368   5.448  10.659   4.544
13787SOL    HW243369   5.438  10.705   4.688
13788SOL     OW43370   1.411   4.996   8.393
13788SOL    HW143371   1.340   5.043   8.350
13788SOL    HW243372   1.487   5.053   8.383
13789SOL     OW43373   4.441   0.492   1.751
13789SOL    HW143374   4.512   0.546   1.784
13789SOL    HW243375   4.462   0.479   1.658
13790SOL     OW43376   5.458   2.328   0.136
13790SOL    HW143377   5.410   2.378   0.070
13790SOL    HW243378   5.550   2.347   0.119
13791SOL     OW43379   4.434   0.562   3.698
13791SOL    HW143380   4.527   0.553   3.719
13791SOL    HW243381   4.411   0.480   3.654
13792SOL     OW43382  10.654   3.517   8.870
13792SOL    HW143383  10.646   3.512   8.774
13792SOL    HW243384  10.600   3.592   8.895
13793SOL     OW43385   6.646   7.182   9.218
13793SOL    HW143386   6.622   7.116   9.152
13793SOL    HW243387   6.642   7.135   9.301
13794SOL     OW43388   1.830   9.266  10.450
13794SOL    HW143389   1.864   9.177  10.443
13794SOL    HW243390   1.873   9.314  10.379
13795SOL     OW43391   0.815   6.636   8.879
13795SOL    HW143392   0.898   6.622   8.926
13795SOL    HW243393   0.826   6.720   8.835
13796SOL     OW43394   4.943   5.028   5.299
13796SOL    HW143395   4.969   4.949   5.251
13796SOL    HW243396   4.963   5.100   5.239
13797SOL     OW43397   6.999   1.613   1.668
13797SOL    HW143398   7.046   1.648   1.744
13797SOL    HW243399   6.914   1.585   1.702
13798SOL     OW43400   0.797   3.866   3.640
13798SOL    HW143401   0.707   3.874   3.609
13798SOL    HW243402   0.808   3.938   3.701
13799SOL     OW43403   5.099   4.877   9.434
13799SOL    HW143404   5.037   4.943   9.403
13799SOL    HW243405   5.045   4.815   9.483
13800SOL     OW43406   3.760   5.326   1.081
13800SOL    HW143407   3.688   5.305   1.140
13800SOL    HW243408   3.800   5.241   1.061
13801SOL     OW43409   3.105   7.445   6.649
13801SOL    HW143410   3.161   7.492   6.587
13801SOL    HW243411   3.058   7.513   6.695
13802SOL     OW43412   7.869   9.884   3.499
13802SOL    HW143413   7.945   9.890   3.556
13802SOL    HW243414   7.896   9.822   3.430
13803SOL     OW43415   2.444   2.403   1.601
13803SOL    HW143416   2.513   2.336   1.605
13803SOL    HW243417   2.371   2.366   1.651
13804SOL     OW43418   6.238   4.603   3.788
13804SOL    HW143419   6.279   4.684   3.758
13804SOL    HW243420   6.263   4.595   3.880
13805SOL     OW43421  10.498   9.194   8.574
13805SOL    HW143422  10.416   9.180   8.526
13805SOL    HW243423  10.501   9.288   8.590
13806SOL     OW43424   0.530   6.095   7.147
13806SOL    HW143425   0.609   6.060   7.189
13806SOL    HW243426   0.543   6.190   7.147
13807SOL     OW43427   9.481   3.936   8.959
13807SOL    HW143428   9.557   3.917   8.903
13807SOL    HW243429   9.519   3.973   9.038
13808SOL     OW43430   4.813   2.072   4.225
13808SOL    HW143431   4.853   2.010   4.163
13808SOL    HW243432   4.857   2.155   4.207
13809SOL     OW43433   0.753   1.782   8.476
13809SOL    HW143434   0.755   1.715   8.407
13809SOL    HW243435   0.823   1.843   8.452
13810SOL     OW43436   8.197  10.480   6.604
13810SOL    HW143437   8.268  10.458   6.543
13810SOL    HW243438   8.230  10.556   6.652
13811SOL     OW43439   0.891   5.589   3.016
13811SOL    HW143440   0.923   5.644   3.087
13811SOL    HW243441   0.841   5.520   3.059
13812SOL     OW43442   7.796   5.683   1.143
13812SOL    HW143443   7.775   5.658   1.053
13812SOL    HW243444   7.792   5.601   1.192
13813SOL     OW43445   4.416   5.253  10.030
13813SOL    HW143446   4.364   5.230   9.952
13813SOL    HW243447   4.382   5.338  10.058
13814SOL     OW43448   0.426   3.761   2.177
13814SOL    HW143449   0.370   3.743   2.252
13814SOL    HW243450   0.400   3.695   2.112
13815SOL     OW43451   7.780   6.132   9.006
13815SOL    HW143452   7.835   6.084   8.943
13815SOL    HW243453   7.797   6.224   8.987
13816SOL     OW43454   4.434   9.808   7.855
13816SOL    HW143455   4.446   9.720   7.890
13816SOL    HW243456   4.486   9.808   7.774
13817SOL     OW43457   2.223   7.252   5.031
13817SOL    HW143458   2.230   7.156   5.034
13817SOL    HW243459   2.129   7.269   5.032
13818SOL     OW43460   9.327   7.186   2.341
13818SOL    HW143461   9.274   7.253   2.383
13818SOL    HW243462   9.379   7.233   2.275
13819SOL     OW43463  10.072   7.308   4.186
13819SOL    HW143464  10.070   7.401   4.205
13819SOL    HW243465  10.106   7.302   4.096
13820SOL     OW43466   0.463   7.625   1.919
13820SOL    HW143467   0.529   7.628   1.850
13820SOL    HW243468   0.505   7.666   1.994
13821SOL     OW43469   9.409   7.528   1.200
13821SOL    HW143470   9.401   7.492   1.111
13821SOL    HW243471   9.347   7.477   1.252
13822SOL     OW43472   1.980   7.254   4.393
13822SOL    HW143473   2.045   7.299   4.339
13822SOL    HW243474   2.012   7.265   4.482
13823SOL     OW43475   6.938   3.710   8.979
13823SOL    HW143476   6.862   3.763   8.956
13823SOL    HW243477   6.916   3.622   8.948
13824SOL     OW43478   2.743  10.066   4.323
13824SOL    HW143479   2.731  10.149   4.277
13824SOL    HW243480   2.703  10.001   4.265
13825SOL     OW43481   8.727  10.933   2.041
13825SOL    HW143482   8.739  10.928   1.946
13825SOL    HW243483   8.637  10.904   2.055
13826SOL     OW43484   0.633   7.422   9.678
13826SOL    HW143485   0.651   7.510   9.646
13826SOL    HW243486   0.538   7.412   9.671
13827SOL     OW43487   9.209   7.374   2.496
13827SOL    HW143488   9.240   7.457   2.461
13827SOL    HW243489   9.120   7.365   2.461
13828SOL     OW43490  10.943   1.577   5.638
13828SOL    HW143491  11.002   1.509   5.671
13828SOL    HW243492  10.875   1.529   5.591
13829SOL     OW43493   6.554   7.773   3.176
13829SOL    HW143494   6.488   7.799   3.239
13829SOL    HW243495   6.630   7.749   3.229
13830SOL     OW43496   6.261   0.120   9.845
13830SOL    HW143497   6.298   0.126   9.933
13830SOL    HW243498   6.284   0.032   9.815
13831SOL     OW43499   5.447   1.433  10.872
13831SOL    HW143500   5.365   1.411  10.916
13831SOL    HW243501   5.421   1.489  10.799
13832SOL     OW43502   4.224   3.488  10.115
13832SOL    HW143503   4.165   3.470  10.188
13832SOL    HW243504   4.308   3.508  10.156
13833SOL     OW43505   1.717   1.572   6.195
13833SOL    HW143506   1.643   1.612   6.149
13833SOL    HW243507   1.749   1.640   6.253
13834SOL     OW43508   2.885   6.646  10.116
13834SOL    HW143509   2.948   6.574  10.110
13834SOL    HW243510   2.915   6.709  10.050
13835SOL     OW43511   8.828   7.450   1.744
13835SOL    HW143512   8.784   7.423   1.824
13835SOL    HW243513   8.803   7.541   1.732
13836SOL     OW43514   2.576   9.387   0.286
13836SOL    HW143515   2.545   9.336   0.211
13836SOL    HW243516   2.530   9.470   0.279
13837SOL     OW43517  10.798   8.930   2.783
13837SOL    HW143518  10.893   8.929   2.798
13837SOL    HW243519  10.774   9.022   2.785
13838SOL     OW43520  10.141   4.675  10.126
13838SOL    HW143521  10.102   4.760  10.109
13838SOL    HW243522  10.207   4.691  10.193
13839SOL     OW43523   3.758   9.681   7.547
13839SOL    HW143524   3.846   9.716   7.559
13839SOL    HW243525   3.715   9.744   7.489
13840SOL     OW43526   8.059   0.061   1.089
13840SOL    HW143527   8.042  -0.029   1.059
13840SOL    HW243528   8.137   0.088   1.039
13841SOL     OW43529   9.785   4.503   1.742
13841SOL    HW143530   9.782   4.441   1.815
13841SOL    HW243531   9.829   4.580   1.778
13842SOL     OW43532   4.803   8.330   4.751
13842SOL    HW143533   4.806   8.387   4.827
13842SOL    HW243534   4.765   8.248   4.784
13843SOL     OW43535   5.953   6.429  10.648
13843SOL    HW143536   6.019   6.366  10.677
13843SOL    HW243537   5.997   6.514  10.652
13844SOL     OW43538  10.769   1.865   0.282
13844SOL    HW143539  10.849   1.812   0.272
13844SOL    HW243540  10.759   1.876   0.376
13845SOL     OW43541   5.290   9.215   1.206
13845SOL    HW143542   5.203   9.223   1.245
13845SOL    HW243543   5.349   9.255   1.270
13846SOL     OW43544   5.572   2.405   0.965
13846SOL    HW143545   5.525   2.327   0.933
13846SOL    HW243546   5.559   2.404   1.059
13847SOL     OW43547   9.867   7.905   2.612
13847SOL    HW143548   9.850   7.913   2.706
13847SOL    HW243549   9.900   7.991   2.586
13848SOL     OW43550   9.194  10.513   4.860
13848SOL    HW143551   9.132  10.441   4.850
13848SOL    HW243552   9.231  10.501   4.947
13849SOL     OW43553   6.122   7.732   9.035
13849SOL    HW143554   6.176   7.752   9.111
13849SOL    HW243555   6.181   7.684   8.976
13850SOL     OW43556   5.724  11.072   3.420
13850SOL    HW143557   5.714  11.104   3.510
13850SOL    HW243558   5.755  10.982   3.429
13851SOL     OW43559   9.091   2.122   6.815
13851SOL    HW143560   9.056   2.056   6.755
13851SOL    HW243561   9.034   2.117   6.892
13852SOL     OW43562  10.642   7.131   3.207
13852SOL    HW143563  10.594   7.213   3.196
13852SOL    HW243564  10.578   7.062   3.188
13853SOL     OW43565   1.613   2.277   3.189
13853SOL    HW143566   1.641   2.211   3.125
13853SOL    HW243567   1.624   2.234   3.273
13854SOL     OW43568   6.564  10.503   0.680
13854SOL    HW143569   6.502  10.501   0.607
13854SOL    HW243570   6.596  10.413   0.687
13855SOL     OW43571   1.630  10.872  10.218
13855SOL    HW143572   1.632  10.938  10.148
13855SOL    HW243573   1.674  10.914  10.292
13856SOL     OW43574   4.148   8.898   0.755
13856SOL    HW143575   4.189   8.979   0.725
13856SOL    HW243576   4.172   8.833   0.688
13857SOL     OW43577   2.478   9.978   2.524
13857SOL    HW143578   2.435   9.930   2.453
13857SOL    HW243579   2.406  10.004   2.582
13858SOL     OW43580   1.480   1.303   9.364
13858SOL    HW143581   1.392   1.287   9.331
13858SOL    HW243582   1.504   1.221   9.408
13859SOL     OW43583   5.679   7.577   4.954
13859SOL    HW143584   5.726   7.647   4.908
13859SOL    HW243585   5.711   7.581   5.044
13860SOL     OW43586   3.832   3.127   5.981
13860SOL    HW143587   3.752   3.076   5.992
13860SOL    HW243588   3.855   3.155   6.069
13861SOL     OW43589   3.404   9.248   3.241
13861SOL    HW143590   3.447   9.333   3.241
13861SOL    HW243591   3.374   9.236   3.151
13862SOL     OW43592   3.307   6.866   9.914
13862SOL    HW143593   3.327   6.781   9.873
13862SOL    HW243594   3.299   6.927   9.840
13863SOL     OW43595   8.059   4.972   9.864
13863SOL    HW143596   8.153   4.976   9.881
13863SOL    HW243597   8.047   4.889   9.817
13864SOL     OW43598   0.426   4.786   9.737
13864SOL    HW143599   0.514   4.755   9.758
13864SOL    HW243600   0.415   4.764   9.644
13865SOL     OW43601   6.636  10.867   1.522
13865SOL    HW143602   6.642  10.963   1.519
13865SOL    HW243603   6.589  10.848   1.603
13866SOL     OW43604   5.711   8.553   8.016
13866SOL    HW143605   5.654   8.630   8.013
13866SOL    HW243606   5.793   8.582   7.976
13867SOL     OW43607  10.970   8.707   4.797
13867SOL    HW143608  10.996   8.617   4.820
13867SOL    HW243609  11.038   8.762   4.835
13868SOL     OW43610   6.060   3.683   0.690
13868SOL    HW143611   6.126   3.750   0.706
13868SOL    HW243612   6.069   3.622   0.763
13869SOL     OW43613   8.045   6.977  10.869
13869SOL    HW143614   8.117   7.025  10.829
13869SOL    HW243615   8.073   6.962  10.959
13870SOL     OW43616   0.578   4.321   5.138
13870SOL    HW143617   0.557   4.374   5.215
13870SOL    HW243618   0.551   4.375   5.063
13871SOL     OW43619   5.708   6.482   1.532
13871SOL    HW143620   5.737   6.552   1.474
13871SOL    HW243621   5.728   6.513   1.620
13872SOL     OW43622   0.224   8.485   1.197
13872SOL    HW143623   0.139   8.528   1.210
13872SOL    HW243624   0.249   8.508   1.107
13873SOL     OW43625   5.899   9.165   3.443
13873SOL    HW143626   5.874   9.209   3.361
13873SOL    HW243627   5.921   9.236   3.503
13874SOL     OW43628   7.231   8.739   0.464
13874SOL    HW143629   7.284   8.738   0.384
13874SOL    HW243630   7.271   8.672   0.520
13875SOL     OW43631   8.347   4.283   2.445
13875SOL    HW143632   8.295   4.318   2.373
13875SOL    HW243633   8.291   4.293   2.522
13876SOL     OW43634   9.594   0.172   4.364
13876SOL    HW143635   9.588   0.080   4.389
13876SOL    HW243636   9.604   0.170   4.268
13877SOL     OW43637   9.405   7.698  11.020
13877SOL    HW143638   9.327   7.747  10.995
13877SOL    HW243639   9.469   7.717  10.951
13878SOL     OW43640   3.624   8.590   9.857
13878SOL    HW143641   3.706   8.609   9.811
13878SOL    HW243642   3.556   8.622   9.798
13879SOL     OW43643   0.090   1.850   4.599
13879SOL    HW143644   0.042   1.883   4.675
13879SOL    HW243645   0.025   1.799   4.550
13880SOL     OW43646   3.406   0.966   6.216
13880SOL    HW143647   3.389   1.051   6.256
13880SOL    HW243648   3.501   0.963   6.205
13881SOL     OW43649   7.397  10.977  10.047
13881SOL    HW143650   7.413  10.908  10.111
13881SOL    HW243651   7.305  10.966  10.022
13882SOL     OW43652   1.083   1.585   9.661
13882SOL    HW143653   1.066   1.679   9.659
13882SOL    HW243654   1.026   1.552   9.730
13883SOL     OW43655   2.630   6.179   0.581
13883SOL    HW143656   2.633   6.219   0.494
13883SOL    HW243657   2.668   6.092   0.568
13884SOL     OW43658   0.822   4.831   3.760
13884SOL    HW143659   0.897   4.827   3.820
13884SOL    HW243660   0.760   4.890   3.802
13885SOL     OW43661   4.790   2.332   8.817
13885SOL    HW143662   4.883   2.320   8.839
13885SOL    HW243663   4.746   2.256   8.856
13886SOL     OW43664   7.495   2.551  10.993
13886SOL    HW143665   7.441   2.598  10.930
13886SOL    HW243666   7.460   2.462  10.992
13887SOL     OW43667   4.765   9.845   9.710
13887SOL    HW143668   4.718   9.764   9.692
13887SOL    HW243669   4.852   9.816   9.737
13888SOL     OW43670   1.270   1.900  10.981
13888SOL    HW143671   1.293   1.808  10.994
13888SOL    HW243672   1.291   1.942  11.064
13889SOL     OW43673   9.350   1.791   2.622
13889SOL    HW143674   9.401   1.814   2.699
13889SOL    HW243675   9.260   1.813   2.644
13890SOL     OW43676   9.688   4.350   4.531
13890SOL    HW143677   9.605   4.386   4.500
13890SOL    HW243678   9.753   4.415   4.507
13891SOL     OW43679   4.606   1.906   9.587
13891SOL    HW143680   4.613   1.811   9.601
13891SOL    HW243681   4.516   1.919   9.558
13892SOL     OW43682   9.985  11.006   4.519
13892SOL    HW143683   9.954  10.962   4.598
13892SOL    HW243684   9.935  10.966   4.447
13893SOL     OW43685   1.002   4.044   4.755
13893SOL    HW143686   0.941   4.115   4.735
13893SOL    HW243687   0.997   4.034   4.850
13894SOL     OW43688   1.041   7.106   9.742
13894SOL    HW143689   0.984   7.149   9.678
13894SOL    HW243690   1.118   7.162   9.748
13895SOL     OW43691   6.178   0.798   1.462
13895SOL    HW143692   6.197   0.707   1.486
13895SOL    HW243693   6.182   0.846   1.544
13896SOL     OW43694   2.289   0.600   6.464
13896SOL    HW143695   2.301   0.529   6.401
13896SOL    HW243696   2.249   0.558   6.540
13897SOL     OW43697   7.702   6.783   0.234
13897SOL    HW143698   7.792   6.790   0.267
13897SOL    HW243699   7.669   6.872   0.235
13898SOL     OW43700   0.391   2.890   4.798
13898SOL    HW143701   0.335   2.952   4.845
13898SOL    HW243702   0.477   2.932   4.795
13899SOL     OW43703   3.857   2.119   0.850
13899SOL    HW143704   3.793   2.052   0.876
13899SOL    HW243705   3.942   2.080   0.871
13900SOL     OW43706   6.811  10.758   7.693
13900SOL    HW143707   6.835  10.849   7.675
13900SOL    HW243708   6.888  10.721   7.737
13901SOL     OW43709   0.285   7.877   0.071
13901SOL    HW143710   0.318   7.951   0.021
13901SOL    HW243711   0.335   7.802   0.039
13902SOL     OW43712   3.263   1.609   8.518
13902SOL    HW143713   3.206   1.667   8.468
13902SOL    HW243714   3.336   1.591   8.459
13903SOL     OW43715   5.762   1.328   9.176
13903SOL    HW143716   5.672   1.345   9.203
13903SOL    HW243717   5.770   1.371   9.091
13904SOL     OW43718   2.529   8.389   2.412
13904SOL    HW143719   2.594   8.339   2.363
13904SOL    HW243720   2.463   8.324   2.437
13905SOL     OW43721   2.797  10.800   2.345
13905SOL    HW143722   2.726  10.864   2.338
13905SOL    HW243723   2.852  10.832   2.416
13906SOL     OW43724   1.605   9.979   1.363
13906SOL    HW143725   1.632   9.987   1.454
13906SOL    HW243726   1.515   9.948   1.367
13907SOL     OW43727   1.974   9.975   6.477
13907SOL    HW143728   2.066   9.998   6.492
13907SOL    HW243729   1.961   9.895   6.528
13908SOL     OW43730   2.030   5.874   5.641
13908SOL    HW143731   2.114   5.839   5.672
13908SOL    HW243732   1.967   5.804   5.659
13909SOL     OW43733   3.180   0.175   1.453
13909SOL    HW143734   3.213   0.086   1.466
13909SOL    HW243735   3.094   0.162   1.412
13910SOL     OW43736   1.128   4.943   4.849
13910SOL    HW143737   1.099   5.032   4.829
13910SOL    HW243738   1.215   4.936   4.809
13911SOL     OW43739   4.903   9.369   1.896
13911SOL    HW143740   4.943   9.286   1.868
13911SOL    HW243741   4.952   9.395   1.974
13912SOL     OW43742   7.745   8.640   6.544
13912SOL    HW143743   7.703   8.573   6.490
13912SOL    HW243744   7.825   8.663   6.496
13913SOL     OW43745   8.498   7.582  10.892
13913SOL    HW143746   8.415   7.539  10.913
13913SOL    HW243747   8.523   7.546  10.807
13914SOL     OW43748   4.281   8.083   3.234
13914SOL    HW143749   4.190   8.054   3.230
13914SOL    HW243750   4.308   8.065   3.324
13915SOL     OW43751   9.675   3.691   0.349
13915SOL    HW143752   9.591   3.690   0.395
13915SOL    HW243753   9.667   3.762   0.285
13916SOL     OW43754   1.590   2.781   6.829
13916SOL    HW143755   1.643   2.758   6.752
13916SOL    HW243756   1.509   2.731   6.817
13917SOL     OW43757   9.300   9.036   4.491
13917SOL    HW143758   9.375   9.020   4.433
13917SOL    HW243759   9.338   9.040   4.578
13918SOL     OW43760   2.648   7.445   0.167
13918SOL    HW143761   2.623   7.354   0.187
13918SOL    HW243762   2.616   7.460   0.078
13919SOL     OW43763   7.875   0.882   0.709
13919SOL    HW143764   7.936   0.886   0.635
13919SOL    HW243765   7.930   0.859   0.784
13920SOL     OW43766   2.375   5.394  10.280
13920SOL    HW143767   2.375   5.359  10.191
13920SOL    HW243768   2.333   5.479  10.272
13921SOL     OW43769   3.238   9.580   8.935
13921SOL    HW143770   3.163   9.550   8.986
13921SOL    HW243771   3.225   9.674   8.926
13922SOL     OW43772   9.194  10.022   3.210
13922SOL    HW143773   9.144  10.100   3.186
13922SOL    HW243774   9.188   9.966   3.132
13923SOL     OW43775   4.319   5.209   0.465
13923SOL    HW143776   4.283   5.129   0.426
13923SOL    HW243777   4.389   5.235   0.405
13924SOL     OW43778   0.134   5.440   0.541
13924SOL    HW143779   0.179   5.515   0.504
13924SOL    HW243780   0.093   5.473   0.621
13925SOL     OW43781   1.711   9.650   1.841
13925SOL    HW143782   1.801   9.624   1.860
13925SOL    HW243783   1.677   9.578   1.787
13926SOL     OW43784   2.752  10.167   8.352
13926SOL    HW143785   2.827  10.164   8.292
13926SOL    HW243786   2.778  10.230   8.419
13927SOL     OW43787   1.304   0.036   2.966
13927SOL    HW143788   1.384  -0.007   2.996
13927SOL    HW243789   1.334   0.115   2.922
13928SOL     OW43790   6.985   8.516   8.023
13928SOL    HW143791   6.994   8.516   7.927
13928SOL    HW243792   6.897   8.549   8.039
13929SOL     OW43793   4.062   3.896   4.789
13929SOL    HW143794   4.059   3.815   4.737
13929SOL    HW243795   4.124   3.952   4.743
13930SOL     OW43796   1.647   6.190   3.318
13930SOL    HW143797   1.630   6.194   3.224
13930SOL    HW243798   1.579   6.244   3.357
13931SOL     OW43799   8.257   0.725   9.428
13931SOL    HW143800   8.316   0.745   9.355
13931SOL    HW243801   8.169   0.737   9.392
13932SOL     OW43802   8.209   9.086   4.148
13932SOL    HW143803   8.199   9.071   4.054
13932SOL    HW243804   8.121   9.073   4.184
13933SOL     OW43805   0.904   2.563   3.594
13933SOL    HW143806   0.866   2.635   3.544
13933SOL    HW243807   0.961   2.518   3.531
13934SOL     OW43808   0.356  11.061   4.421
13934SOL    HW143809   0.373  11.065   4.327
13934SOL    HW243810   0.305  10.981   4.432
13935SOL     OW43811   1.845  10.428   1.956
13935SOL    HW143812   1.821  10.346   1.999
13935SOL    HW243813   1.905  10.471   2.017
13936SOL     OW43814   3.174   0.740   7.781
13936SOL    HW143815   3.218   0.671   7.831
13936SOL    HW243816   3.088   0.748   7.821
13937SOL     OW43817   1.166   8.497   0.549
13937SOL    HW143818   1.237   8.466   0.605
13937SOL    HW243819   1.141   8.581   0.586
13938SOL     OW43820   2.281   9.947   8.476
13938SOL    HW143821   2.192   9.920   8.452
13938SOL    HW243822   2.308   9.883   8.542
13939SOL     OW43823   8.578   8.821   2.752
13939SOL    HW143824   8.587   8.909   2.787
13939SOL    HW243825   8.634   8.767   2.808
13940SOL     OW43826   2.516   5.160   0.883
13940SOL    HW143827   2.558   5.238   0.848
13940SOL    HW243828   2.583   5.092   0.876
13941SOL     OW43829   2.451   7.757  10.014
13941SOL    HW143830   2.372   7.767  10.067
13941SOL    HW243831   2.522   7.789  10.070
13942SOL     OW43832   5.473   9.860   5.804
13942SOL    HW143833   5.518   9.932   5.759
13942SOL    HW243834   5.464   9.792   5.737
13943SOL     OW43835   4.537   7.485   9.997
13943SOL    HW143836   4.619   7.471  10.043
13943SOL    HW243837   4.562   7.487   9.904
13944SOL     OW43838   4.823   4.057   9.887
13944SOL    HW143839   4.861   4.139   9.855
13944SOL    HW243840   4.893   4.017   9.939
13945SOL     OW43841   5.873   6.925   5.058
13945SOL    HW143842   5.919   6.937   5.141
13945SOL    HW243843   5.915   6.986   4.998
13946SOL     OW43844  10.893   7.179   0.995
13946SOL    HW143845  10.923   7.137   0.914
13946SOL    HW243846  10.899   7.110   1.061
13947SOL     OW43847   1.088  10.599   0.293
13947SOL    HW143848   1.086  10.594   0.197
13947SOL    HW243849   1.005  10.560   0.321
13948SOL     OW43850   1.656   7.092   9.286
13948SOL    HW143851   1.688   7.085   9.376
13948SOL    HW243852   1.666   7.184   9.263
13949SOL     OW43853   5.654   0.360   7.665
13949SOL    HW143854   5.597   0.398   7.598
13949SOL    HW243855   5.689   0.435   7.712
13950SOL     OW43856  10.971   8.001   2.215
13950SOL    HW143857  11.002   7.997   2.305
13950SOL    HW243858  10.897   7.940   2.212
13951SOL     OW43859   9.769   6.192   5.863
13951SOL    HW143860   9.845   6.189   5.921
13951SOL    HW243861   9.806   6.185   5.775
13952SOL     OW43862   3.122   6.412   5.798
13952SOL    HW143863   3.099   6.476   5.731
13952SOL    HW243864   3.214   6.430   5.818
13953SOL     OW43865   9.664   2.509  11.024
13953SOL    HW143866   9.588   2.455  11.045
13953SOL    HW243867   9.704   2.466  10.948
13954SOL     OW43868   3.805  10.082   0.895
13954SOL    HW143869   3.862  10.149   0.931
13954SOL    HW243870   3.726  10.129   0.869
13955SOL     OW43871   2.395   1.935   8.475
13955SOL    HW143872   2.343   1.865   8.435
13955SOL    HW243873   2.484   1.899   8.478
13956SOL     OW43874   6.753   5.648   2.498
13956SOL    HW143875   6.710   5.684   2.575
13956SOL    HW243876   6.681   5.622   2.440
13957SOL     OW43877   4.108   1.711   7.349
13957SOL    HW143878   4.100   1.806   7.344
13957SOL    HW243879   4.185   1.690   7.296
13958SOL     OW43880   5.146   5.443   1.233
13958SOL    HW143881   5.100   5.392   1.165
13958SOL    HW243882   5.239   5.422   1.220
13959SOL     OW43883   8.221   2.101   3.042
13959SOL    HW143884   8.250   2.087   3.132
13959SOL    HW243885   8.215   2.196   3.033
13960SOL     OW43886   2.950   7.773   4.387
13960SOL    HW143887   3.009   7.749   4.458
13960SOL    HW243888   2.903   7.850   4.419
13961SOL     OW43889  10.090   2.922   3.483
13961SOL    HW143890  10.029   2.853   3.509
13961SOL    HW243891  10.152   2.928   3.556
13962SOL     OW43892   0.805   4.428   4.381
13962SOL    HW143893   0.898   4.450   4.392
13962SOL    HW243894   0.775   4.486   4.311
13963SOL     OW43895   1.325   1.382   5.717
13963SOL    HW143896   1.408   1.376   5.669
13963SOL    HW243897   1.341   1.335   5.799
13964SOL     OW43898   2.366   0.789   5.893
13964SOL    HW143899   2.280   0.831   5.897
13964SOL    HW243900   2.413   0.837   5.825
13965SOL     OW43901   1.945   6.929   4.503
13965SOL    HW143902   1.874   6.950   4.563
13965SOL    HW243903   2.019   6.981   4.533
13966SOL     OW43904   7.559   0.115   0.672
13966SOL    HW143905   7.523   0.073   0.594
13966SOL    HW243906   7.641   0.154   0.642
13967SOL     OW43907   9.018   0.812  10.922
13967SOL    HW143908   9.045   0.893  10.879
13967SOL    HW243909   9.068   0.743  10.877
13968SOL     OW43910   6.315   7.956   6.935
13968SOL    HW143911   6.296   7.903   6.857
13968SOL    HW243912   6.245   7.934   6.997
13969SOL     OW43913  10.221   9.002   4.910
13969SOL    HW143914  10.249   9.007   5.001
13969SOL    HW243915  10.289   9.049   4.861
13970SOL     OW43916   3.678   1.944   8.993
13970SOL    HW143917   3.668   1.893   9.073
13970SOL    HW243918   3.703   1.879   8.927
13971SOL     OW43919   3.711   1.147   9.484
13971SOL    HW143920   3.682   1.055   9.482
13971SOL    HW243921   3.716   1.169   9.577
13972SOL     OW43922   5.306   6.404   2.126
13972SOL    HW143923   5.222   6.371   2.158
13972SOL    HW243924   5.332   6.341   2.058
13973SOL     OW43925   3.373  10.068   6.535
13973SOL    HW143926   3.468  10.079   6.541
13973SOL    HW243927   3.354   9.993   6.592
13974SOL     OW43928  11.082   6.888   2.981
13974SOL    HW143929  11.060   6.908   2.890
13974SOL    HW243930  10.999   6.896   3.028
13975SOL     OW43931   4.318   8.401   6.185
13975SOL    HW143932   4.334   8.449   6.266
13975SOL    HW243933   4.261   8.328   6.211
13976SOL     OW43934   7.387   4.991   8.975
13976SOL    HW143935   7.391   4.985   8.879
13976SOL    HW243936   7.415   5.080   8.995
13977SOL     OW43937   1.212  10.799   9.561
13977SOL    HW143938   1.198  10.882   9.516
13977SOL    HW243939   1.266  10.748   9.500
13978SOL     OW43940   3.242   5.215   3.180
13978SOL    HW143941   3.164   5.270   3.186
13978SOL    HW243942   3.209   5.131   3.147
13979SOL     OW43943   1.067   8.650   9.224
13979SOL    HW143944   1.036   8.617   9.139
13979SOL    HW243945   1.121   8.726   9.202
13980SOL     OW43946   7.982   3.979  11.008
13980SOL    HW143947   7.953   4.047  10.947
13980SOL    HW243948   7.953   4.010  11.094
13981SOL     OW43949  10.271   9.242   5.492
13981SOL    HW143950  10.326   9.210   5.420
13981SOL    HW243951  10.330   9.246   5.567
13982SOL     OW43952   3.797   1.771   0.690
13982SOL    HW143953   3.751   1.706   0.637
13982SOL    HW243954   3.728   1.816   0.738
13983SOL     OW43955   8.280   7.212   5.768
13983SOL    HW143956   8.252   7.176   5.684
13983SOL    HW243957   8.281   7.136   5.827
13984SOL     OW43958   7.633   5.345   3.952
13984SOL    HW143959   7.634   5.268   4.009
13984SOL    HW243960   7.542   5.351   3.922
13985SOL     OW43961   3.864   6.663   6.418
13985SOL    HW143962   3.894   6.727   6.481
13985SOL    HW243963   3.941   6.608   6.401
13986SOL     OW43964   3.172   7.791   2.567
13986SOL    HW143965   3.149   7.808   2.475
13986SOL    HW243966   3.115   7.718   2.593
13987SOL     OW43967   6.001   6.525   5.538
13987SOL    HW143968   6.091   6.493   5.548
13987SOL    HW243969   5.947   6.446   5.536
13988SOL     OW43970   3.570   0.656   3.426
13988SOL    HW143971   3.611   0.615   3.349
13988SOL    HW243972   3.614   0.741   3.433
13989SOL     OW43973   8.793   3.377   1.821
13989SOL    HW143974   8.835   3.302   1.863
13989SOL    HW243975   8.707   3.382   1.861
13990SOL     OW43976   2.517   3.840   0.418
13990SOL    HW143977   2.613   3.836   0.418
13990SOL    HW243978   2.495   3.892   0.340
13991SOL     OW43979   4.986  10.557  11.093
13991SOL    HW143980   4.895  10.585  11.097
13991SOL    HW243981   5.000  10.507  11.173
13992SOL     OW43982   2.331   6.513   5.570
13992SOL    HW143983   2.330   6.485   5.661
13992SOL    HW243984   2.308   6.434   5.521
13993SOL     OW43985   3.071   8.682   8.226
13993SOL    HW143986   3.150   8.672   8.279
13993SOL    HW243987   3.076   8.771   8.192
13994SOL     OW43988   2.819   1.423   1.139
13994SOL    HW143989   2.749   1.432   1.203
13994SOL    HW243990   2.894   1.468   1.178
13995SOL     OW43991   4.607   4.236   6.047
13995SOL    HW143992   4.609   4.164   6.110
13995SOL    HW243993   4.668   4.300   6.082
13996SOL     OW43994   9.060   5.963   1.402
13996SOL    HW143995   9.146   6.003   1.387
13996SOL    HW243996   9.051   5.961   1.497
13997SOL     OW43997   3.043   4.646   5.972
13997SOL    HW143998   3.046   4.607   6.059
13997SOL    HW243999   3.083   4.580   5.915
13998SOL     OW44000   7.351   4.365   2.286
13998SOL    HW144001   7.402   4.349   2.365
13998SOL    HW244002   7.276   4.416   2.316
13999SOL     OW44003   8.697   7.338   4.545
13999SOL    HW144004   8.706   7.383   4.461
13999SOL    HW244005   8.786   7.336   4.581
14000SOL     OW44006   2.089   7.071   7.751
14000SOL    HW144007   1.997   7.075   7.776
14000SOL    HW244008   2.088   7.074   7.655
14001SOL     OW44009   4.473   9.316   3.620
14001SOL    HW144010   4.417   9.297   3.695
14001SOL    HW244011   4.516   9.398   3.642
14002SOL     OW44012   2.410   0.653   5.081
14002SOL    HW144013   2.495   0.660   5.036
14002SOL    HW244014   2.420   0.577   5.139
14003SOL     OW44015   9.824   9.985   6.331
14003SOL    HW144016   9.831   9.893   6.305
14003SOL    HW244017   9.730   9.999   6.344
14004SOL     OW44018  10.272   9.526   7.024
14004SOL    HW144019  10.247   9.433   7.022
14004SOL    HW244020  10.208   9.567   7.081
14005SOL     OW44021   4.870   2.602   8.654
14005SOL    HW144022   4.927   2.580   8.727
14005SOL    HW244023   4.809   2.528   8.648
14006SOL     OW44024   4.792   2.954   1.779
14006SOL    HW144025   4.712   2.961   1.727
14006SOL    HW244026   4.775   2.882   1.840
14007SOL     OW44027   6.995   9.404   4.529
14007SOL    HW144028   6.968   9.482   4.481
14007SOL    HW244029   6.913   9.361   4.554
14008SOL     OW44030   0.523   9.752   3.428
14008SOL    HW144031   0.613   9.777   3.409
14008SOL    HW244032   0.482   9.746   3.342
14009SOL     OW44033   2.116   2.951   1.029
14009SOL    HW144034   2.062   2.986   1.099
14009SOL    HW244035   2.066   2.968   0.949
14010SOL     OW44036   8.732   1.434   4.238
14010SOL    HW144037   8.699   1.520   4.263
14010SOL    HW244038   8.759   1.394   4.320
14011SOL     OW44039   2.216   4.306   3.957
14011SOL    HW144040   2.183   4.244   3.891
14011SOL    HW244041   2.193   4.266   4.041
14012SOL     OW44042   2.362   7.566  10.702
14012SOL    HW144043   2.390   7.479  10.673
14012SOL    HW244044   2.291   7.589  10.642
14013SOL     OW44045   2.759   0.298   0.746
14013SOL    HW144046   2.720   0.232   0.803
14013SOL    HW244047   2.730   0.382   0.781
14014SOL     OW44048   9.747  10.092   2.363
14014SOL    HW144049   9.660  10.075   2.326
14014SOL    HW244050   9.801  10.118   2.288
14015SOL     OW44051  10.819  10.324  10.514
14015SOL    HW144052  10.908  10.293  10.498
14015SOL    HW244053  10.830  10.412  10.549
14016SOL     OW44054   4.559   1.410  10.875
14016SOL    HW144055   4.618   1.338  10.852
14016SOL    HW244056   4.544   1.456  10.792
14017SOL     OW44057   3.002  10.810   4.523
14017SOL    HW144058   3.020  10.796   4.430
14017SOL    HW244059   2.962  10.897   4.527
14018SOL     OW44060   0.467   7.246   3.017
14018SOL    HW144061   0.442   7.267   3.107
14018SOL    HW244062   0.444   7.153   3.006
14019SOL     OW44063   3.152   2.436   5.221
14019SOL    HW144064   3.232   2.417   5.270
14019SOL    HW244065   3.176   2.420   5.129
14020SOL     OW44066   1.399   8.828   1.197
14020SOL    HW144067   1.488   8.838   1.164
14020SOL    HW244068   1.368   8.748   1.155
14021SOL     OW44069   8.142   2.127   8.554
14021SOL    HW144070   8.109   2.180   8.626
14021SOL    HW244071   8.236   2.146   8.551
14022SOL     OW44072   1.398  10.827   2.479
14022SOL    HW144073   1.393  10.744   2.431
14022SOL    HW244074   1.395  10.894   2.411
14023SOL     OW44075   3.779   9.336   4.597
14023SOL    HW144076   3.709   9.270   4.596
14023SOL    HW244077   3.747   9.406   4.540
14024SOL     OW44078   1.231   0.177   3.796
14024SOL    HW144079   1.258   0.236   3.725
14024SOL    HW244080   1.301   0.112   3.801
14025SOL     OW44081   0.163  10.532   6.119
14025SOL    HW144082   0.071  10.509   6.133
14025SOL    HW244083   0.188  10.484   6.040
14026SOL     OW44084   3.819   9.829   6.646
14026SOL    HW144085   3.876   9.886   6.697
14026SOL    HW244086   3.807   9.751   6.701
14027SOL     OW44087   1.291   7.079   5.039
14027SOL    HW144088   1.283   7.005   4.978
14027SOL    HW244089   1.385   7.090   5.050
14028SOL     OW44090   2.704   2.039   2.317
14028SOL    HW144091   2.792   2.033   2.355
14028SOL    HW244092   2.656   1.966   2.356
14029SOL     OW44093   7.090   9.780   7.093
14029SOL    HW144094   7.013   9.740   7.133
14029SOL    HW244095   7.153   9.708   7.086
14030SOL     OW44096   3.177   5.685   6.027
14030SOL    HW144097   3.234   5.761   6.031
14030SOL    HW244098   3.201   5.633   6.103
14031SOL     OW44099   3.302  10.152   2.116
14031SOL    HW144100   3.351  10.070   2.123
14031SOL    HW244101   3.235  10.146   2.184
14032SOL     OW44102   4.277   4.179   3.134
14032SOL    HW144103   4.298   4.227   3.213
14032SOL    HW244104   4.193   4.137   3.153
14033SOL     OW44105   9.841   2.727   2.522
14033SOL    HW144106   9.934   2.737   2.544
14033SOL    HW244107   9.797   2.716   2.606
14034SOL     OW44108   3.181   5.297   4.659
14034SOL    HW144109   3.141   5.222   4.703
14034SOL    HW244110   3.153   5.373   4.710
14035SOL     OW44111   1.085   7.174   5.732
14035SOL    HW144112   1.111   7.123   5.809
14035SOL    HW244113   1.027   7.242   5.766
14036SOL     OW44114   4.731   7.720   2.580
14036SOL    HW144115   4.752   7.806   2.616
14036SOL    HW244116   4.655   7.691   2.630
14037SOL     OW44117  10.796   1.467   8.830
14037SOL    HW144118  10.885   1.486   8.800
14037SOL    HW244119  10.799   1.482   8.924
14038SOL     OW44120   4.575   0.968   9.961
14038SOL    HW144121   4.589   0.961  10.055
14038SOL    HW244122   4.506   0.904   9.942
14039SOL     OW44123   8.580   1.053   6.215
14039SOL    HW144124   8.500   1.051   6.267
14039SOL    HW244125   8.562   0.994   6.141
14040SOL     OW44126   8.432   1.895   8.439
14040SOL    HW144127   8.385   1.905   8.522
14040SOL    HW244128   8.404   1.809   8.405
14041SOL     OW44129   5.387   7.585   7.282
14041SOL    HW144130   5.430   7.509   7.322
14041SOL    HW244131   5.301   7.552   7.254
14042SOL     OW44132   8.280   4.768   2.879
14042SOL    HW144133   8.359   4.816   2.904
14042SOL    HW244134   8.285   4.762   2.783
14043SOL     OW44135   6.448   1.960   7.867
14043SOL    HW144136   6.471   2.041   7.911
14043SOL    HW244137   6.357   1.973   7.839
14044SOL     OW44138   6.887   8.475   6.713
14044SOL    HW144139   6.863   8.384   6.732
14044SOL    HW244140   6.981   8.479   6.731
14045SOL     OW44141   0.292   1.162   7.218
14045SOL    HW144142   0.264   1.131   7.131
14045SOL    HW244143   0.231   1.121   7.279
14046SOL     OW44144   5.850   8.557   5.757
14046SOL    HW144145   5.794   8.634   5.763
14046SOL    HW244146   5.923   8.575   5.816
14047SOL     OW44147   4.421   9.705   3.154
14047SOL    HW144148   4.466   9.667   3.078
14047SOL    HW244149   4.365   9.634   3.186
14048SOL     OW44150   8.526  10.520   9.195
14048SOL    HW144151   8.488  10.478   9.272
14048SOL    HW244152   8.456  10.575   9.161
14049SOL     OW44153   4.852   9.968   0.608
14049SOL    HW144154   4.919   9.910   0.645
14049SOL    HW244155   4.797   9.910   0.555
14050SOL     OW44156   2.469   8.601   0.916
14050SOL    HW144157   2.390   8.652   0.901
14050SOL    HW244158   2.540   8.663   0.905
14051SOL     OW44159   8.959   0.535   4.385
14051SOL    HW144160   9.009   0.615   4.370
14051SOL    HW244161   8.984   0.506   4.473
14052SOL     OW44162   3.673   8.868   1.791
14052SOL    HW144163   3.726   8.795   1.759
14052SOL    HW244164   3.707   8.944   1.745
14053SOL     OW44165   0.525  11.061   7.694
14053SOL    HW144166   0.465  11.122   7.737
14053SOL    HW244167   0.602  11.058   7.751
14054SOL     OW44168   5.281   0.402   6.147
14054SOL    HW144169   5.369   0.405   6.184
14054SOL    HW244170   5.256   0.310   6.153
14055SOL     OW44171   0.192   1.906  10.991
14055SOL    HW144172   0.203   1.816  10.960
14055SOL    HW244173   0.276   1.928  11.032
14056SOL     OW44174   4.527   9.665   6.472
14056SOL    HW144175   4.457   9.729   6.478
14056SOL    HW244176   4.502   9.608   6.398
14057SOL     OW44177   2.504   3.396   5.466
14057SOL    HW144178   2.597   3.375   5.459
14057SOL    HW244179   2.501   3.491   5.468
14058SOL     OW44180   5.818   1.391   4.342
14058SOL    HW144181   5.906   1.376   4.308
14058SOL    HW244182   5.818   1.348   4.427
14059SOL     OW44183   6.469   9.782   9.104
14059SOL    HW144184   6.408   9.710   9.090
14059SOL    HW244185   6.553   9.739   9.121
14060SOL     OW44186   9.003   8.981   4.735
14060SOL    HW144187   9.014   8.968   4.641
14060SOL    HW244188   8.918   8.941   4.755
14061SOL     OW44189   9.049   3.873   5.045
14061SOL    HW144190   9.031   3.863   4.951
14061SOL    HW244191   8.980   3.823   5.088
14062SOL     OW44192   4.304   3.842   7.301
14062SOL    HW144193   4.252   3.781   7.249
14062SOL    HW244194   4.377   3.866   7.244
14063SOL     OW44195   4.378   0.786   5.732
14063SOL    HW144196   4.383   0.768   5.638
14063SOL    HW244197   4.358   0.879   5.737
14064SOL     OW44198   3.652   0.892   9.510
14064SOL    HW144199   3.644   0.861   9.419
14064SOL    HW244200   3.666   0.812   9.561
14065SOL     OW44201   9.074   1.137   1.550
14065SOL    HW144202   9.089   1.215   1.497
14065SOL    HW244203   8.979   1.133   1.561
14066SOL     OW44204   0.735   5.190   3.391
14066SOL    HW144205   0.748   5.133   3.315
14066SOL    HW244206   0.681   5.138   3.451
14067SOL     OW44207   1.087   9.795   1.353
14067SOL    HW144208   1.071   9.705   1.324
14067SOL    HW244209   1.006   9.841   1.333
14068SOL     OW44210   3.636   3.446   7.225
14068SOL    HW144211   3.681   3.466   7.143
14068SOL    HW244212   3.628   3.530   7.269
14069SOL     OW44213  10.488   0.566   7.848
14069SOL    HW144214  10.437   0.615   7.912
14069SOL    HW244215  10.555   0.520   7.899
14070SOL     OW44216   2.597   9.868   3.655
14070SOL    HW144217   2.584   9.773   3.644
14070SOL    HW244218   2.678   9.887   3.606
14071SOL     OW44219  10.159   1.537   2.674
14071SOL    HW144220  10.233   1.517   2.732
14071SOL    HW244221  10.184   1.618   2.630
14072SOL     OW44222   2.513   8.713  10.658
14072SOL    HW144223   2.531   8.793  10.609
14072SOL    HW244224   2.427   8.685  10.627
14073SOL     OW44225   5.017   5.966   1.259
14073SOL    HW144226   5.007   5.922   1.174
14073SOL    HW244227   5.056   5.899   1.315
14074SOL     OW44228   4.744   8.562   5.841
14074SOL    HW144229   4.702   8.591   5.922
14074SOL    HW244230   4.691   8.600   5.771
14075SOL     OW44231   2.521   8.622   9.620
14075SOL    HW144232   2.567   8.570   9.686
14075SOL    HW244233   2.436   8.580   9.612
14076SOL     OW44234   8.309   8.348   4.419
14076SOL    HW144235   8.250   8.326   4.347
14076SOL    HW244236   8.296   8.278   4.483
14077SOL     OW44237   6.209   1.296   8.500
14077SOL    HW144238   6.117   1.317   8.516
14077SOL    HW244239   6.235   1.243   8.575
14078SOL     OW44240   3.162   9.962   4.500
14078SOL    HW144241   3.131   9.872   4.515
14078SOL    HW244242   3.082  10.014   4.495
14079SOL     OW44243   6.184   9.080   3.248
14079SOL    HW144244   6.104   9.113   3.207
14079SOL    HW244245   6.255   9.118   3.196
14080SOL     OW44246   1.938   1.007   8.636
14080SOL    HW144247   1.918   0.922   8.597
14080SOL    HW244248   2.020   1.033   8.595
14081SOL     OW44249   7.712   8.590   2.180
14081SOL    HW144250   7.779   8.526   2.205
14081SOL    HW244251   7.744   8.673   2.215
14082SOL     OW44252   8.605  10.672   2.208
14082SOL    HW144253   8.584  10.637   2.121
14082SOL    HW244254   8.521  10.702   2.243
14083SOL     OW44255   9.980   1.257   4.255
14083SOL    HW144256  10.060   1.308   4.242
14083SOL    HW244257   9.982   1.191   4.185
14084SOL     OW44258   6.738  10.985   0.661
14084SOL    HW144259   6.763  10.908   0.712
14084SOL    HW244260   6.655  10.961   0.620
14085SOL     OW44261   3.532   7.674   0.034
14085SOL    HW144262   3.482   7.753   0.052
14085SOL    HW244263   3.469   7.602   0.043
14086SOL     OW44264   2.774   9.997   3.293
14086SOL    HW144265   2.813   9.954   3.369
14086SOL    HW244266   2.818   9.957   3.218
14087SOL     OW44267   8.824   0.391   5.632
14087SOL    HW144268   8.886   0.439   5.577
14087SOL    HW244269   8.871   0.377   5.714
14088SOL     OW44270   1.683   4.656   9.399
14088SOL    HW144271   1.673   4.576   9.450
14088SOL    HW244272   1.739   4.712   9.452
14089SOL     OW44273   2.680   6.523   4.370
14089SOL    HW144274   2.592   6.537   4.334
14089SOL    HW244275   2.680   6.571   4.453
14090SOL     OW44276   7.201   2.963   1.312
14090SOL    HW144277   7.199   3.001   1.400
14090SOL    HW244278   7.289   2.981   1.280
14091SOL     OW44279   3.127   8.033   4.270
14091SOL    HW144280   3.069   7.978   4.216
14091SOL    HW244281   3.177   8.084   4.206
14092SOL     OW44282   2.280   9.855   9.032
14092SOL    HW144283   2.348   9.794   9.061
14092SOL    HW244284   2.261   9.829   8.942
14093SOL     OW44285   1.826  10.390   2.742
14093SOL    HW144286   1.826  10.371   2.836
14093SOL    HW244287   1.786  10.476   2.735
14094SOL     OW44288   1.846   6.581   8.207
14094SOL    HW144289   1.861   6.634   8.285
14094SOL    HW244290   1.925   6.593   8.154
14095SOL     OW44291   4.691   9.708   9.191
14095SOL    HW144292   4.729   9.768   9.255
14095SOL    HW244293   4.710   9.748   9.106
14096SOL     OW44294   6.629   5.929   4.658
14096SOL    HW144295   6.696   5.934   4.589
14096SOL    HW244296   6.675   5.892   4.733
14097SOL     OW44297  10.507  10.549   3.825
14097SOL    HW144298  10.496  10.636   3.863
14097SOL    HW244299  10.541  10.566   3.737
14098SOL     OW44300   8.833   9.640  10.277
14098SOL    HW144301   8.833   9.551  10.240
14098SOL    HW244302   8.755   9.642  10.332
14099SOL     OW44303   1.522   8.329   4.003
14099SOL    HW144304   1.564   8.337   3.917
14099SOL    HW244305   1.594   8.333   4.066
14100SOL     OW44306   6.997   1.244   8.148
14100SOL    HW144307   6.993   1.158   8.191
14100SOL    HW244308   7.043   1.227   8.065
14101SOL     OW44309   4.042   2.978   3.530
14101SOL    HW144310   4.117   2.954   3.584
14101SOL    HW244311   3.970   2.989   3.592
14102SOL     OW44312   2.965   5.152   7.016
14102SOL    HW144313   2.994   5.241   7.036
14102SOL    HW244314   2.905   5.129   7.087
14103SOL     OW44315   2.699  10.298   3.761
14103SOL    HW144316   2.730  10.385   3.787
14103SOL    HW244317   2.765  10.267   3.698
14104SOL     OW44318   3.935   3.684   2.916
14104SOL    HW144319   3.948   3.771   2.878
14104SOL    HW244320   3.862   3.694   2.977
14105SOL     OW44321   2.230   3.685   9.362
14105SOL    HW144322   2.266   3.673   9.450
14105SOL    HW244323   2.162   3.618   9.355
14106SOL     OW44324   5.217   7.387   4.339
14106SOL    HW144325   5.255   7.474   4.342
14106SOL    HW244326   5.274   7.338   4.279
14107SOL     OW44327   1.910   9.045   5.703
14107SOL    HW144328   1.840   9.107   5.685
14107SOL    HW244329   1.990   9.097   5.696
14108SOL     OW44330   6.838   2.522   7.910
14108SOL    HW144331   6.882   2.460   7.852
14108SOL    HW244332   6.850   2.485   7.997
14109SOL     OW44333   6.290   7.197   7.106
14109SOL    HW144334   6.204   7.161   7.130
14109SOL    HW244335   6.353   7.132   7.139
14110SOL     OW44336   9.040  10.144   8.930
14110SOL    HW144337   9.100  10.163   9.002
14110SOL    HW244338   9.045  10.221   8.873
14111SOL     OW44339   8.784  10.410   3.513
14111SOL    HW144340   8.776  10.336   3.453
14111SOL    HW244341   8.725  10.390   3.585
14112SOL     OW44342   2.039  10.809   6.062
14112SOL    HW144343   2.117  10.792   6.009
14112SOL    HW244344   1.971  10.828   5.997
14113SOL     OW44345   5.957  10.906   5.390
14113SOL    HW144346   5.909  10.968   5.445
14113SOL    HW244347   5.916  10.913   5.304
14114SOL     OW44348  10.386   1.292  10.709
14114SOL    HW144349  10.395   1.284  10.804
14114SOL    HW244350  10.304   1.246  10.689
14115SOL     OW44351   2.980   8.408   8.264
14115SOL    HW144352   3.055   8.360   8.299
14115SOL    HW244353   3.007   8.500   8.266
14116SOL     OW44354   5.530   1.356   4.678
14116SOL    HW144355   5.475   1.375   4.754
14116SOL    HW244356   5.542   1.440   4.634
14117SOL     OW44357   6.899   9.519   9.856
14117SOL    HW144358   6.869   9.523   9.947
14117SOL    HW244359   6.975   9.577   9.853
14118SOL     OW44360  10.087   8.714   1.523
14118SOL    HW144361  10.039   8.641   1.484
14118SOL    HW244362  10.044   8.792   1.488
14119SOL     OW44363   1.669   0.972   4.717
14119SOL    HW144364   1.735   1.038   4.737
14119SOL    HW244365   1.610   0.973   4.792
14120SOL     OW44366   9.132   0.495   2.710
14120SOL    HW144367   9.113   0.432   2.780
14120SOL    HW244368   9.088   0.575   2.737
14121SOL     OW44369   5.460   7.879  11.052
14121SOL    HW144370   5.430   7.928  10.975
14121SOL    HW244371   5.554   7.896  11.056
14122SOL     OW44372   6.578   1.931   3.019
14122SOL    HW144373   6.657   1.887   3.051
14122SOL    HW244374   6.506   1.886   3.063
14123SOL     OW44375   6.389   8.133   2.991
14123SOL    HW144376   6.355   8.173   2.911
14123SOL    HW244377   6.442   8.059   2.960
14124SOL     OW44378   2.507   0.838   6.688
14124SOL    HW144379   2.566   0.811   6.617
14124SOL    HW244380   2.463   0.757   6.714
14125SOL     OW44381   4.335   8.014   2.892
14125SOL    HW144382   4.334   7.957   2.968
14125SOL    HW244383   4.312   7.956   2.819
14126SOL     OW44384   6.138   9.073   6.019
14126SOL    HW144385   6.230   9.046   6.023
14126SOL    HW244386   6.132   9.146   6.080
14127SOL     OW44387   4.650  10.160   5.208
14127SOL    HW144388   4.696  10.240   5.183
14127SOL    HW244389   4.622  10.175   5.298
14128SOL     OW44390   6.891   0.877   7.271
14128SOL    HW144391   6.837   0.932   7.326
14128SOL    HW244392   6.978   0.917   7.274
14129SOL     OW44393   9.367   2.482   7.417
14129SOL    HW144394   9.291   2.424   7.426
14129SOL    HW244395   9.382   2.487   7.322
14130SOL     OW44396   5.897   6.808  10.588
14130SOL    HW144397   5.935   6.760  10.662
14130SOL    HW244398   5.971   6.855  10.550
14131SOL     OW44399   3.381   7.897   0.065
14131SOL    HW144400   3.417   7.966   0.009
14131SOL    HW244401   3.296   7.877   0.027
14132SOL     OW44402   5.232   3.956   6.296
14132SOL    HW144403   5.316   3.989   6.328
14132SOL    HW244404   5.256   3.889   6.232
14133SOL     OW44405   5.713   0.636  11.025
14133SOL    HW144406   5.631   0.598  11.056
14133SOL    HW244407   5.691   0.675  10.940
14134SOL     OW44408   3.261   1.086   7.276
14134SOL    HW144409   3.204   1.162   7.279
14134SOL    HW244410   3.316   1.094   7.354
14135SOL     OW44411   9.470   3.680   9.148
14135SOL    HW144412   9.424   3.731   9.081
14135SOL    HW244413   9.541   3.737   9.177
14136SOL     OW44414   6.125   0.310   7.095
14136SOL    HW144415   6.132   0.230   7.042
14136SOL    HW244416   6.179   0.374   7.048
14137SOL     OW44417   5.362   3.165   1.002
14137SOL    HW144418   5.403   3.116   0.930
14137SOL    HW244419   5.428   3.229   1.028
14138SOL     OW44420   1.121   8.461   5.146
14138SOL    HW144421   1.040   8.488   5.189
14138SOL    HW244422   1.191   8.502   5.197
14139SOL     OW44423   0.560   2.590   5.928
14139SOL    HW144424   0.587   2.541   5.849
14139SOL    HW244425   0.467   2.569   5.938
14140SOL     OW44426   0.134   2.915   3.028
14140SOL    HW144427   0.135   2.880   2.939
14140SOL    HW244428   0.047   2.953   3.038
14141SOL     OW44429   0.065   2.665   1.453
14141SOL    HW144430   0.034   2.677   1.543
14141SOL    HW244431   0.014   2.591   1.420
14142SOL     OW44432   2.144   6.747   1.486
14142SOL    HW144433   2.159   6.832   1.445
14142SOL    HW244434   2.111   6.692   1.415
14143SOL     OW44435   9.774   1.822   1.930
14143SOL    HW144436   9.849   1.876   1.955
14143SOL    HW244437   9.707   1.841   1.996
14144SOL     OW44438   1.250   2.543   8.783
14144SOL    HW144439   1.187   2.500   8.841
14144SOL    HW244440   1.334   2.536   8.829
14145SOL     OW44441   3.730   0.673   7.435
14145SOL    HW144442   3.686   0.756   7.417
14145SOL    HW244443   3.757   0.678   7.526
14146SOL     OW44444   1.973   4.797   3.556
14146SOL    HW144445   1.963   4.726   3.620
14146SOL    HW244446   1.955   4.877   3.605
14147SOL     OW44447   9.198   3.342   2.857
14147SOL    HW144448   9.246   3.310   2.780
14147SOL    HW244449   9.113   3.370   2.822
14148SOL     OW44450   1.341   8.481   9.685
14148SOL    HW144451   1.379   8.480   9.597
14148SOL    HW244452   1.274   8.412   9.682
14149SOL     OW44453   6.287   9.216   5.080
14149SOL    HW144454   6.371   9.238   5.120
14149SOL    HW244455   6.275   9.123   5.100
14150SOL     OW44456   2.426   2.981   6.525
14150SOL    HW144457   2.391   3.045   6.463
14150SOL    HW244458   2.420   3.024   6.610
14151SOL     OW44459   0.903   4.059   8.697
14151SOL    HW144460   0.850   4.090   8.770
14151SOL    HW244461   0.862   3.976   8.672
14152SOL     OW44462   4.622   6.571  10.925
14152SOL    HW144463   4.613   6.594  10.832
14152SOL    HW244464   4.540   6.527  10.947
14153SOL     OW44465   4.572   9.264   1.452
14153SOL    HW144466   4.577   9.168   1.455
14153SOL    HW244467   4.489   9.282   1.408
14154SOL     OW44468  10.849  10.930   4.215
14154SOL    HW144469  10.895  10.931   4.131
14154SOL    HW244470  10.911  10.889   4.275
14155SOL     OW44471   7.461   5.797   5.224
14155SOL    HW144472   7.381   5.747   5.206
14155SOL    HW244473   7.435   5.888   5.212
14156SOL     OW44474   5.733  10.944   5.184
14156SOL    HW144475   5.651  10.894   5.183
14156SOL    HW244476   5.780  10.914   5.106
14157SOL     OW44477   8.710   1.172   6.417
14157SOL    HW144478   8.668   1.124   6.345
14157SOL    HW244479   8.642   1.181   6.483
14158SOL     OW44480   4.542   3.380   5.958
14158SOL    HW144481   4.466   3.349   5.909
14158SOL    HW244482   4.606   3.403   5.890
14159SOL     OW44483   4.104   7.019   1.487
14159SOL    HW144484   4.143   7.040   1.571
14159SOL    HW244485   4.121   7.096   1.432
14160SOL     OW44486   3.760   8.027   0.674
14160SOL    HW144487   3.823   8.037   0.745
14160SOL    HW244488   3.809   7.982   0.605
14161SOL     OW44489   8.499   0.431   6.611
14161SOL    HW144490   8.498   0.335   6.606
14161SOL    HW244491   8.575   0.451   6.665
14162SOL     OW44492   0.689   9.727   9.787
14162SOL    HW144493   0.661   9.682   9.866
14162SOL    HW244494   0.607   9.751   9.743
14163SOL     OW44495   2.214   8.024   7.215
14163SOL    HW144496   2.275   8.009   7.143
14163SOL    HW244497   2.187   8.115   7.205
14164SOL     OW44498   6.054   0.865  10.349
14164SOL    HW144499   6.146   0.855  10.373
14164SOL    HW244500   6.043   0.809  10.272
14165SOL     OW44501   1.543   2.457   8.810
14165SOL    HW144502   1.558   2.396   8.882
14165SOL    HW244503   1.516   2.401   8.736
14166SOL     OW44504   1.325   7.275   4.236
14166SOL    HW144505   1.309   7.276   4.330
14166SOL    HW244506   1.404   7.222   4.225
14167SOL     OW44507   8.031   8.922   6.526
14167SOL    HW144508   8.076   8.840   6.506
14167SOL    HW244509   7.991   8.907   6.612
14168SOL     OW44510  11.063   8.877   6.696
14168SOL    HW144511  10.975   8.894   6.729
14168SOL    HW244512  11.051   8.861   6.602
14169SOL     OW44513   7.008   8.143   0.819
14169SOL    HW144514   7.013   8.238   0.831
14169SOL    HW244515   7.087   8.121   0.770
14170SOL     OW44516   1.517   9.687   2.222
14170SOL    HW144517   1.485   9.668   2.134
14170SOL    HW244518   1.612   9.693   2.211
14171SOL     OW44519  10.563   5.078   6.434
14171SOL    HW144520  10.574   5.156   6.379
14171SOL    HW244521  10.522   5.013   6.376
14172SOL     OW44522   3.030   0.962   0.893
14172SOL    HW144523   3.017   0.903   0.967
14172SOL    HW244524   2.952   1.018   0.893
14173SOL     OW44525  10.631   6.060   8.110
14173SOL    HW144526  10.649   6.149   8.081
14173SOL    HW244527  10.706   6.009   8.077
14174SOL     OW44528  10.504   9.541   5.759
14174SOL    HW144529  10.576   9.561   5.818
14174SOL    HW244530  10.527   9.585   5.677
14175SOL     OW44531   2.314   6.593   2.346
14175SOL    HW144532   2.272   6.652   2.409
14175SOL    HW244533   2.381   6.547   2.397
14176SOL     OW44534   2.973   0.684  10.750
14176SOL    HW144535   2.966   0.767  10.796
14176SOL    HW244536   3.045   0.697  10.688
14177SOL     OW44537   4.795   2.293   9.211
14177SOL    HW144538   4.870   2.336   9.170
14177SOL    HW244539   4.833   2.215   9.253
14178SOL     OW44540   8.903  10.007   3.052
14178SOL    HW144541   8.844  10.040   2.984
14178SOL    HW244542   8.857   9.931   3.089
14179SOL     OW44543   5.662  10.428   5.162
14179SOL    HW144544   5.585  10.485   5.166
14179SOL    HW244545   5.733  10.481   5.199
14180SOL     OW44546   9.690   5.580   5.753
14180SOL    HW144547   9.612   5.555   5.703
14180SOL    HW244548   9.677   5.540   5.839
14181SOL     OW44549   2.732   7.335  10.885
14181SOL    HW144550   2.640   7.356  10.899
14181SOL    HW244551   2.775   7.420  10.873
14182SOL     OW44552  10.349   0.602   3.254
14182SOL    HW144553  10.424   0.633   3.203
14182SOL    HW244554  10.344   0.508   3.234
14183SOL     OW44555  10.037  10.431   8.911
14183SOL    HW144556  10.128  10.459   8.899
14183SOL    HW244557  10.044  10.341   8.944
14184SOL     OW44558   2.018  10.915   0.496
14184SOL    HW144559   2.027  10.926   0.590
14184SOL    HW244560   2.084  10.849   0.473
14185SOL     OW44561   9.092   2.057   2.427
14185SOL    HW144562   9.070   1.967   2.402
14185SOL    HW244563   9.045   2.071   2.509
14186SOL     OW44564   0.070   7.944   1.670
14186SOL    HW144565   0.019   8.024   1.663
14186SOL    HW244566   0.143   7.967   1.726
14187SOL     OW44567   6.143   2.873   1.976
14187SOL    HW144568   6.232   2.900   1.955
14187SOL    HW244569   6.138   2.877   2.071
14188SOL     OW44570  10.469   7.460   8.430
14188SOL    HW144571  10.543   7.399   8.430
14188SOL    HW244572  10.499   7.534   8.377
14189SOL     OW44573   0.867  10.859   4.506
14189SOL    HW144574   0.959  10.835   4.495
14189SOL    HW244575   0.821  10.804   4.442
14190SOL     OW44576   3.019   4.189   6.216
14190SOL    HW144577   2.996   4.242   6.139
14190SOL    HW244578   3.098   4.230   6.251
14191SOL     OW44579   5.806   4.998   2.225
14191SOL    HW144580   5.748   4.944   2.279
14191SOL    HW244581   5.892   4.990   2.267
14192SOL     OW44582   8.357   1.407   7.776
14192SOL    HW144583   8.291   1.473   7.755
14192SOL    HW244584   8.321   1.325   7.741
14193SOL     OW44585   4.804   6.682   7.885
14193SOL    HW144586   4.713   6.654   7.882
14193SOL    HW244587   4.811   6.736   7.963
14194SOL     OW44588   8.465   8.285   4.901
14194SOL    HW144589   8.457   8.379   4.914
14194SOL    HW244590   8.553   8.273   4.866
14195SOL     OW44591   4.922  10.320   6.558
14195SOL    HW144592   5.005  10.295   6.517
14195SOL    HW244593   4.856  10.266   6.513
14196SOL     OW44594   4.126  10.239   4.281
14196SOL    HW144595   4.114  10.161   4.335
14196SOL    HW244596   4.039  10.258   4.246
14197SOL     OW44597   3.755   0.202   4.119
14197SOL    HW144598   3.753   0.214   4.024
14197SOL    HW244599   3.764   0.290   4.154
14198SOL     OW44600   1.177   7.814   1.031
14198SOL    HW144601   1.112   7.884   1.022
14198SOL    HW244602   1.237   7.845   1.098
14199SOL     OW44603   0.559   1.134   1.132
14199SOL    HW144604   0.475   1.093   1.110
14199SOL    HW244605   0.563   1.211   1.075
14200SOL     OW44606   2.777   2.642   5.640
14200SOL    HW144607   2.839   2.705   5.603
14200SOL    HW244608   2.750   2.589   5.565
14201SOL     OW44609   1.237  10.644   5.372
14201SOL    HW144610   1.233  10.706   5.444
14201SOL    HW244611   1.181  10.571   5.399
14202SOL     OW44612   3.579   5.714   8.209
14202SOL    HW144613   3.509   5.759   8.257
14202SOL    HW244614   3.608   5.644   8.268
14203SOL     OW44615   5.175   1.694   8.066
14203SOL    HW144616   5.250   1.634   8.065
14203SOL    HW244617   5.132   1.677   8.150
14204SOL     OW44618   6.305   2.138   9.794
14204SOL    HW144619   6.281   2.155   9.703
14204SOL    HW244620   6.235   2.082   9.827
14205SOL     OW44621   2.466   9.539   5.723
14205SOL    HW144622   2.452   9.539   5.628
14205SOL    HW244623   2.446   9.628   5.750
14206SOL     OW44624  10.503   2.459   4.733
14206SOL    HW144625  10.413   2.428   4.745
14206SOL    HW244626  10.531   2.418   4.650
14207SOL     OW44627   0.232   8.550   4.844
14207SOL    HW144628   0.293   8.621   4.863
14207SOL    HW244629   0.265   8.511   4.763
14208SOL     OW44630  10.252   1.557   1.676
14208SOL    HW144631  10.245   1.514   1.761
14208SOL    HW244632  10.286   1.489   1.618
14209SOL     OW44633   6.520   4.368   3.148
14209SOL    HW144634   6.514   4.302   3.217
14209SOL    HW244635   6.438   4.417   3.154
14210SOL     OW44636   2.504   5.581   7.361
14210SOL    HW144637   2.481   5.600   7.270
14210SOL    HW244638   2.436   5.624   7.412
14211SOL     OW44639   0.548   5.284   4.628
14211SOL    HW144640   0.600   5.224   4.682
14211SOL    HW244641   0.457   5.258   4.643
14212SOL     OW44642   7.851   8.828   8.583
14212SOL    HW144643   7.942   8.851   8.563
14212SOL    HW244644   7.838   8.745   8.537
14213SOL     OW44645   2.342   4.484   8.934
14213SOL    HW144646   2.390   4.497   8.852
14213SOL    HW244647   2.339   4.571   8.974
14214SOL     OW44648   5.286   7.429   5.327
14214SOL    HW144649   5.211   7.471   5.286
14214SOL    HW244650   5.354   7.496   5.326
14215SOL     OW44651   5.813   7.392  10.757
14215SOL    HW144652   5.832   7.406  10.849
14215SOL    HW244653   5.861   7.461  10.712
14216SOL     OW44654   7.509   0.496   8.136
14216SOL    HW144655   7.492   0.501   8.230
14216SOL    HW244656   7.578   0.560   8.120
14217SOL     OW44657   7.834   1.736   3.382
14217SOL    HW144658   7.802   1.713   3.469
14217SOL    HW244659   7.878   1.657   3.351
14218SOL     OW44660  10.845   3.503   3.203
14218SOL    HW144661  10.821   3.584   3.248
14218SOL    HW244662  10.860   3.529   3.112
14219SOL     OW44663   5.741   7.786   6.791
14219SOL    HW144664   5.761   7.760   6.881
14219SOL    HW244665   5.726   7.703   6.745
14220SOL     OW44666   1.216   1.505   2.242
14220SOL    HW144667   1.231   1.413   2.265
14220SOL    HW244668   1.156   1.537   2.309
14221SOL     OW44669  10.700   2.588   7.417
14221SOL    HW144670  10.738   2.672   7.441
14221SOL    HW244671  10.722   2.577   7.324
14222SOL     OW44672   5.330   9.002   8.308
14222SOL    HW144673   5.400   9.057   8.343
14222SOL    HW244674   5.263   9.001   8.376
14223SOL     OW44675   1.875  10.477   9.877
14223SOL    HW144676   1.885  10.406   9.813
14223SOL    HW244677   1.790  10.461   9.917
14224SOL     OW44678   6.334   0.077   1.512
14224SOL    HW144679   6.415   0.044   1.472
14224SOL    HW244680   6.315   0.157   1.464
14225SOL     OW44681   2.923   2.611   8.149
14225SOL    HW144682   2.830   2.608   8.168
14225SOL    HW244683   2.959   2.675   8.210
14226SOL     OW44684   2.671   7.790   8.612
14226SOL    HW144685   2.668   7.798   8.707
14226SOL    HW244686   2.648   7.698   8.595
14227SOL     OW44687   4.363   9.098   3.280
14227SOL    HW144688   4.313   9.164   3.232
14227SOL    HW244689   4.346   9.117   3.372
14228SOL     OW44690   6.504   1.337   5.396
14228SOL    HW144691   6.574   1.285   5.436
14228SOL    HW244692   6.543   1.423   5.382
14229SOL     OW44693  10.163   4.614   9.181
14229SOL    HW144694  10.236   4.552   9.189
14229SOL    HW244695  10.171   4.649   9.092
14230SOL     OW44696   0.980   6.866   1.655
14230SOL    HW144697   1.066   6.892   1.688
14230SOL    HW244698   0.926   6.856   1.733
14231SOL     OW44699   8.362   2.845   3.391
14231SOL    HW144700   8.314   2.797   3.459
14231SOL    HW244701   8.337   2.936   3.403
14232SOL     OW44702  10.367   5.773   2.219
14232SOL    HW144703  10.326   5.766   2.305
14232SOL    HW244704  10.344   5.691   2.174
14233SOL     OW44705   4.538   5.107   4.929
14233SOL    HW144706   4.494   5.025   4.952
14233SOL    HW244707   4.610   5.079   4.872
14234SOL     OW44708   3.750   4.763   3.598
14234SOL    HW144709   3.752   4.699   3.526
14234SOL    HW244710   3.732   4.710   3.676
14235SOL     OW44711   0.333   9.305   3.442
14235SOL    HW144712   0.327   9.240   3.371
14235SOL    HW244713   0.427   9.320   3.453
14236SOL     OW44714   4.184   0.323   0.056
14236SOL    HW144715   4.091   0.310   0.039
14236SOL    HW244716   4.195   0.418   0.060
14237SOL     OW44717   6.995   3.002   8.045
14237SOL    HW144718   7.011   3.064   7.973
14237SOL    HW244719   6.983   2.917   8.001
14238SOL     OW44720   2.044   5.886   4.348
14238SOL    HW144721   1.980   5.837   4.399
14238SOL    HW244722   2.011   5.975   4.346
14239SOL     OW44723   0.416   4.425   6.959
14239SOL    HW144724   0.487   4.397   6.901
14239SOL    HW244725   0.339   4.431   6.902
14240SOL     OW44726   8.171  10.552   2.848
14240SOL    HW144727   8.135  10.542   2.936
14240SOL    HW244728   8.266  10.559   2.861
14241SOL     OW44729   9.807   7.074   0.075
14241SOL    HW144730   9.900   7.062   0.058
14241SOL    HW244731   9.804   7.125   0.156
14242SOL     OW44732   9.508   1.593   8.013
14242SOL    HW144733   9.420   1.578   8.047
14242SOL    HW244734   9.516   1.531   7.940
14243SOL     OW44735   0.614   7.669   7.483
14243SOL    HW144736   0.528   7.690   7.518
14243SOL    HW244737   0.647   7.752   7.448
14244SOL     OW44738   3.424   6.665   9.461
14244SOL    HW144739   3.428   6.614   9.380
14244SOL    HW244740   3.371   6.611   9.519
14245SOL     OW44741   8.433   7.361   5.290
14245SOL    HW144742   8.504   7.372   5.226
14245SOL    HW244743   8.470   7.303   5.357
14246SOL     OW44744  10.179   8.973   0.818
14246SOL    HW144745  10.167   8.883   0.849
14246SOL    HW244746  10.260   9.002   0.860
14247SOL     OW44747   5.608   3.286   0.666
14247SOL    HW144748   5.521   3.303   0.702
14247SOL    HW244749   5.668   3.327   0.728
14248SOL     OW44750   5.674   0.896   6.720
14248SOL    HW144751   5.671   0.968   6.657
14248SOL    HW244752   5.703   0.820   6.669
14249SOL     OW44753   3.210   2.526   7.139
14249SOL    HW144754   3.177   2.586   7.072
14249SOL    HW244755   3.217   2.579   7.218
14250SOL     OW44756   5.362   7.019   3.840
14250SOL    HW144757   5.370   6.928   3.811
14250SOL    HW244758   5.449   7.041   3.873
14251SOL     OW44759  10.556   8.242  10.295
14251SOL    HW144760  10.477   8.188  10.289
14251SOL    HW244761  10.625   8.181  10.323
14252SOL     OW44762   4.046   8.764   4.176
14252SOL    HW144763   4.056   8.669   4.180
14252SOL    HW244764   3.952   8.778   4.181
14253SOL     OW44765   7.784  10.647   5.571
14253SOL    HW144766   7.713  10.625   5.511
14253SOL    HW244767   7.845  10.573   5.564
14254SOL     OW44768   4.677   5.863   1.698
14254SOL    HW144769   4.743   5.908   1.645
14254SOL    HW244770   4.652   5.926   1.765
14255SOL     OW44771   6.466  10.848   5.347
14255SOL    HW144772   6.458  10.942   5.363
14255SOL    HW244773   6.383  10.811   5.377
14256SOL     OW44774   8.982   0.263   5.787
14256SOL    HW144775   9.075   0.276   5.769
14256SOL    HW244776   8.961   0.180   5.743
14257SOL     OW44777   3.845  10.946   6.902
14257SOL    HW144778   3.877  10.970   6.815
14257SOL    HW244779   3.900  10.872   6.928
14258SOL     OW44780   7.365   0.839   4.984
14258SOL    HW144781   7.285   0.883   5.010
14258SOL    HW244782   7.431   0.908   4.981
14259SOL     OW44783   9.203   0.827   9.882
14259SOL    HW144784   9.149   0.902   9.907
14259SOL    HW244785   9.271   0.823   9.949
14260SOL     OW44786   8.147   9.601   6.626
14260SOL    HW144787   8.211   9.664   6.659
14260SOL    HW244788   8.064   9.628   6.664
14261SOL     OW44789   9.859   6.943   7.575
14261SOL    HW144790   9.896   6.856   7.590
14261SOL    HW244791   9.770   6.926   7.545
14262SOL     OW44792   9.540  10.774   2.013
14262SOL    HW144793   9.612  10.776   1.950
14262SOL    HW244794   9.500  10.861   2.006
14263SOL     OW44795   3.918   9.115   5.835
14263SOL    HW144796   3.845   9.169   5.804
14263SOL    HW244797   3.952   9.162   5.911
14264SOL     OW44798   9.996  10.598   0.539
14264SOL    HW144799  10.052  10.624   0.612
14264SOL    HW244800   9.984  10.678   0.487
14265SOL     OW44801   8.733   2.298  10.530
14265SOL    HW144802   8.671   2.226  10.521
14265SOL    HW244803   8.683   2.376  10.507
14266SOL     OW44804   1.027   9.103   3.336
14266SOL    HW144805   0.964   9.128   3.403
14266SOL    HW244806   1.073   9.027   3.373
14267SOL     OW44807   1.079   3.430   1.955
14267SOL    HW144808   0.989   3.428   1.923
14267SOL    HW244809   1.084   3.357   2.017
14268SOL     OW44810   1.229   7.387   7.104
14268SOL    HW144811   1.216   7.334   7.183
14268SOL    HW244812   1.144   7.386   7.060
14269SOL     OW44813   7.683   7.128   2.130
14269SOL    HW144814   7.605   7.074   2.143
14269SOL    HW244815   7.680   7.192   2.200
14270SOL     OW44816   2.105   9.858   4.438
14270SOL    HW144817   2.146   9.776   4.411
14270SOL    HW244818   2.025   9.863   4.385
14271SOL     OW44819   6.112  10.554  10.063
14271SOL    HW144820   6.031  10.592  10.029
14271SOL    HW244821   6.094  10.460  10.070
14272SOL     OW44822   9.026  10.405   7.293
14272SOL    HW144823   8.967  10.337   7.324
14272SOL    HW244824   9.081  10.426   7.368
14273SOL     OW44825   9.482   3.371   3.840
14273SOL    HW144826   9.490   3.416   3.924
14273SOL    HW244827   9.557   3.311   3.838
14274SOL     OW44828   7.564  10.111   0.840
14274SOL    HW144829   7.503  10.058   0.891
14274SOL    HW244830   7.646  10.106   0.889
14275SOL     OW44831   3.155   9.433  10.574
14275SOL    HW144832   3.197   9.355  10.611
14275SOL    HW244833   3.228   9.493  10.556
14276SOL     OW44834   3.013   5.936   8.457
14276SOL    HW144835   2.995   5.987   8.378
14276SOL    HW244836   2.980   5.990   8.528
14277SOL     OW44837   0.977   5.425  10.634
14277SOL    HW144838   0.938   5.400  10.550
14277SOL    HW244839   0.932   5.505  10.659
14278SOL     OW44840  11.091   0.493   6.196
14278SOL    HW144841  11.159   0.437   6.157
14278SOL    HW244842  11.072   0.452   6.280
14279SOL     OW44843   1.143   8.560   4.640
14279SOL    HW144844   1.221   8.613   4.657
14279SOL    HW244845   1.155   8.482   4.694
14280SOL     OW44846   1.354  10.010   0.579
14280SOL    HW144847   1.320   9.962   0.654
14280SOL    HW244848   1.277  10.035   0.529
14281SOL     OW44849  10.176   1.399   3.228
14281SOL    HW144850  10.216   1.482   3.252
14281SOL    HW244851  10.231   1.366   3.157
14282SOL     OW44852   6.700  10.343   1.993
14282SOL    HW144853   6.778  10.361   1.940
14282SOL    HW244854   6.630  10.334   1.929
14283SOL     OW44855   9.650   9.105   2.787
14283SOL    HW144856   9.611   9.159   2.855
14283SOL    HW244857   9.727   9.154   2.757
14284SOL     OW44858   9.238   7.692   2.312
14284SOL    HW144859   9.221   7.708   2.405
14284SOL    HW244860   9.164   7.639   2.283
14285SOL     OW44861   4.376   0.118  11.080
14285SOL    HW144862   4.424   0.190  11.040
14285SOL    HW244863   4.291   0.155  11.103
14286SOL     OW44864  10.565   3.915   8.100
14286SOL    HW144865  10.584   3.832   8.055
14286SOL    HW244866  10.499   3.892   8.165
14287SOL     OW44867   0.272  10.741   4.681
14287SOL    HW144868   0.331  10.709   4.748
14287SOL    HW244869   0.232  10.819   4.719
14288SOL     OW44870   8.528  10.367   8.917
14288SOL    HW144871   8.510  10.431   8.986
14288SOL    HW244872   8.474  10.291   8.939
14289SOL     OW44873   7.578   0.985   7.039
14289SOL    HW144874   7.613   1.027   6.960
14289SOL    HW244875   7.638   1.011   7.109
14290SOL     OW44876   5.703  10.208   5.001
14290SOL    HW144877   5.674  10.285   5.049
14290SOL    HW244878   5.687  10.135   5.060
14291SOL     OW44879   5.600   8.936   5.954
14291SOL    HW144880   5.632   8.874   6.019
14291SOL    HW244881   5.533   8.987   5.999
14292SOL     OW44882   4.723   7.003   6.031
14292SOL    HW144883   4.748   7.079   5.979
14292SOL    HW244884   4.654   7.034   6.088
14293SOL     OW44885   7.590   7.570   9.379
14293SOL    HW144886   7.585   7.630   9.453
14293SOL    HW244887   7.551   7.488   9.411
14294SOL     OW44888   1.085   1.233   5.606
14294SOL    HW144889   1.116   1.320   5.631
14294SOL    HW244890   1.014   1.214   5.667
14295SOL     OW44891   5.424   1.922   3.993
14295SOL    HW144892   5.481   1.848   3.971
14295SOL    HW244893   5.337   1.883   4.002
14296SOL     OW44894   1.934   3.483  10.650
14296SOL    HW144895   1.985   3.509  10.726
14296SOL    HW244896   1.898   3.564  10.615
14297SOL     OW44897   6.333   5.013   3.068
14297SOL    HW144898   6.342   5.081   3.134
14297SOL    HW244899   6.325   5.060   2.985
14298SOL     OW44900   8.331   2.248   1.546
14298SOL    HW144901   8.302   2.293   1.625
14298SOL    HW244902   8.283   2.165   1.547
14299SOL     OW44903   2.844  10.048  10.090
14299SOL    HW144904   2.884  10.125  10.048
14299SOL    HW244905   2.872   9.974  10.035
14300SOL     OW44906   9.253   3.761   8.965
14300SOL    HW144907   9.324   3.825   8.960
14300SOL    HW244908   9.181   3.801   8.916
14301SOL     OW44909  10.144   9.369   3.358
14301SOL    HW144910  10.063   9.367   3.408
14301SOL    HW244911  10.135   9.445   3.301
14302SOL     OW44912   3.820   1.417   0.623
14302SOL    HW144913   3.760   1.482   0.587
14302SOL    HW244914   3.907   1.451   0.603
14303SOL     OW44915   1.611   6.624   0.880
14303SOL    HW144916   1.551   6.552   0.899
14303SOL    HW244917   1.640   6.655   0.965
14304SOL     OW44918   0.333   2.401   1.410
14304SOL    HW144919   0.357   2.427   1.321
14304SOL    HW244920   0.242   2.370   1.402
14305SOL     OW44921   5.445   6.901   3.344
14305SOL    HW144922   5.375   6.966   3.346
14305SOL    HW244923   5.460   6.885   3.250
14306SOL     OW44924   8.821   3.440   4.689
14306SOL    HW144925   8.771   3.359   4.695
14306SOL    HW244926   8.755   3.509   4.682
14307SOL     OW44927   7.851   8.767   5.860
14307SOL    HW144928   7.932   8.722   5.884
14307SOL    HW244929   7.817   8.717   5.786
14308SOL     OW44930   3.027   2.079   4.545
14308SOL    HW144931   3.023   2.152   4.607
14308SOL    HW244932   2.936   2.049   4.538
14309SOL     OW44933   2.587   2.068   3.351
14309SOL    HW144934   2.542   2.145   3.316
14309SOL    HW244935   2.549   1.994   3.303
14310SOL     OW44936   3.031   8.301   4.055
14310SOL    HW144937   3.122   8.321   4.077
14310SOL    HW244938   3.025   8.320   3.961
14311SOL     OW44939  10.971   9.627   7.906
14311SOL    HW144940  10.994   9.655   7.817
14311SOL    HW244941  10.956   9.708   7.954
14312SOL     OW44942   2.511   1.238  10.098
14312SOL    HW144943   2.489   1.145  10.101
14312SOL    HW244944   2.514   1.265  10.189
14313SOL     OW44945   9.967  10.098   1.799
14313SOL    HW144946   9.959  10.191   1.780
14313SOL    HW244947   9.895  10.080   1.859
14314SOL     OW44948   6.919   9.964   3.442
14314SOL    HW144949   6.957  10.035   3.390
14314SOL    HW244950   6.826   9.984   3.445
14315SOL     OW44951   0.102  10.376   3.919
14315SOL    HW144952   0.011  10.358   3.943
14315SOL    HW244953   0.134  10.292   3.884
14316SOL     OW44954   9.108   0.219   7.253
14316SOL    HW144955   9.026   0.268   7.251
14316SOL    HW244956   9.146   0.239   7.338
14317SOL     OW44957   2.035   0.275  10.618
14317SOL    HW144958   2.110   0.287  10.560
14317SOL    HW244959   2.064   0.208  10.680
14318SOL     OW44960  10.678   0.619   2.404
14318SOL    HW144961  10.693   0.546   2.344
14318SOL    HW244962  10.763   0.663   2.410
14319SOL     OW44963   1.262   0.756   1.541
14319SOL    HW144964   1.207   0.750   1.463
14319SOL    HW244965   1.305   0.670   1.546
14320SOL     OW44966   2.148   6.819   4.815
14320SOL    HW144967   2.194   6.892   4.773
14320SOL    HW244968   2.192   6.741   4.781
14321SOL     OW44969   3.710   1.307   0.136
14321SOL    HW144970   3.766   1.334   0.209
14321SOL    HW244971   3.771   1.282   0.067
14322SOL     OW44972   6.466   8.201   4.429
14322SOL    HW144973   6.457   8.271   4.364
14322SOL    HW244974   6.444   8.121   4.381
14323SOL     OW44975   6.980   3.540   9.361
14323SOL    HW144976   6.959   3.486   9.437
14323SOL    HW244977   7.046   3.489   9.313
14324SOL     OW44978   4.867   2.544   5.263
14324SOL    HW144979   4.858   2.623   5.315
14324SOL    HW244980   4.918   2.571   5.187
14325SOL     OW44981   6.379   7.618   0.116
14325SOL    HW144982   6.325   7.669   0.176
14325SOL    HW244983   6.458   7.671   0.103
14326SOL     OW44984   9.134   4.289   6.778
14326SOL    HW144985   9.227   4.265   6.780
14326SOL    HW244986   9.097   4.235   6.707
14327SOL     OW44987   3.352  10.633   1.663
14327SOL    HW144988   3.291  10.706   1.671
14327SOL    HW244989   3.301  10.556   1.687
14328SOL     OW44990   2.215   4.463   6.586
14328SOL    HW144991   2.184   4.522   6.517
14328SOL    HW244992   2.265   4.519   6.645
14329SOL     OW44993   7.725   6.048   6.737
14329SOL    HW144994   7.810   6.092   6.745
14329SOL    HW244995   7.743   5.972   6.681
14330SOL     OW44996   3.101   0.197   9.689
14330SOL    HW144997   3.072   0.288   9.696
14330SOL    HW244998   3.109   0.181   9.595
14331SOL     OW44999   9.951   6.522   0.231
14331SOL    HW145000   9.938   6.599   0.286
14331SOL    HW245001   9.866   6.479   0.230
14332SOL     OW45002   0.192   4.102   8.276
14332SOL    HW145003   0.197   4.107   8.180
14332SOL    HW245004   0.214   4.011   8.296
14333SOL     OW45005   3.244   1.873   7.612
14333SOL    HW145006   3.184   1.945   7.593
14333SOL    HW245007   3.262   1.880   7.705
14334SOL     OW45008   2.469   0.592   2.206
14334SOL    HW145009   2.528   0.543   2.264
14334SOL    HW245010   2.416   0.524   2.164
14335SOL     OW45011   1.311   8.044   3.249
14335SOL    HW145012   1.363   8.111   3.294
14335SOL    HW245013   1.331   8.056   3.156
14336SOL     OW45014   8.992   5.960  10.844
14336SOL    HW145015   8.991   6.048  10.882
14336SOL    HW245016   8.901   5.944  10.818
14337SOL     OW45017   9.739   4.380   3.026
14337SOL    HW145018   9.827   4.364   3.060
14337SOL    HW245019   9.714   4.465   3.061
14338SOL     OW45020   5.949   6.569   6.027
14338SOL    HW145021   5.993   6.622   6.093
14338SOL    HW245022   5.971   6.611   5.944
14339SOL     OW45023   1.326  10.349   6.676
14339SOL    HW145024   1.396  10.293   6.642
14339SOL    HW245025   1.257  10.287   6.700
14340SOL     OW45026   1.709   4.773   5.754
14340SOL    HW145027   1.676   4.686   5.729
14340SOL    HW245028   1.663   4.793   5.835
14341SOL     OW45029   3.929  10.494   4.403
14341SOL    HW145030   3.920  10.435   4.328
14341SOL    HW245031   3.888  10.576   4.374
14342SOL     OW45032   4.186   7.041   4.088
14342SOL    HW145033   4.175   6.984   4.164
14342SOL    HW245034   4.098   7.052   4.053
14343SOL     OW45035   3.204   8.591   7.901
14343SOL    HW145036   3.186   8.581   7.807
14343SOL    HW245037   3.156   8.669   7.926
14344SOL     OW45038   9.811   1.880  10.521
14344SOL    HW145039   9.816   1.923  10.606
14344SOL    HW245040   9.807   1.786  10.542
14345SOL     OW45041  10.411   7.769   9.871
14345SOL    HW145042  10.339   7.718   9.835
14345SOL    HW245043  10.482   7.758   9.807
14346SOL     OW45044   1.175   9.238   0.185
14346SOL    HW145045   1.191   9.149   0.152
14346SOL    HW245046   1.080   9.248   0.181
14347SOL     OW45047   7.125   7.561   2.934
14347SOL    HW145048   7.154   7.482   2.888
14347SOL    HW245049   7.030   7.560   2.924
14348SOL     OW45050   7.440   7.638   3.333
14348SOL    HW145051   7.360   7.615   3.379
14348SOL    HW245052   7.492   7.557   3.334
14349SOL     OW45053   4.166   8.602   7.507
14349SOL    HW145054   4.202   8.537   7.446
14349SOL    HW245055   4.154   8.554   7.589
14350SOL     OW45056   4.301  10.087   5.997
14350SOL    HW145057   4.279  10.041   5.915
14350SOL    HW245058   4.219  10.127   6.025
14351SOL     OW45059   8.527   3.626   6.724
14351SOL    HW145060   8.508   3.650   6.633
14351SOL    HW245061   8.618   3.652   6.737
14352SOL     OW45062   4.897  10.870   6.654
14352SOL    HW145063   4.964  10.802   6.655
14352SOL    HW245064   4.861  10.870   6.742
14353SOL     OW45065   6.059   1.971   9.924
14353SOL    HW145066   6.113   2.025   9.982
14353SOL    HW245067   5.970   1.978   9.959
14354SOL     OW45068  10.910   2.070   6.906
14354SOL    HW145069  10.867   2.034   6.828
14354SOL    HW245070  10.838   2.095   6.964
14355SOL     OW45071   2.617   7.643   0.357
14355SOL    HW145072   2.636   7.574   0.293
14355SOL    HW245073   2.605   7.596   0.439
14356SOL     OW45074   5.723   1.454   3.592
14356SOL    HW145075   5.816   1.439   3.611
14356SOL    HW245076   5.690   1.367   3.567
14357SOL     OW45077   3.420   8.933   7.836
14357SOL    HW145078   3.433   8.842   7.864
14357SOL    HW245079   3.438   8.985   7.914
14358SOL     OW45080   4.565   4.785   8.689
14358SOL    HW145081   4.645   4.766   8.640
14358SOL    HW245082   4.592   4.848   8.755
14359SOL     OW45083   0.245   3.029  10.541
14359SOL    HW145084   0.278   3.117  10.557
14359SOL    HW245085   0.265   3.012  10.449
14360SOL     OW45086   7.025   5.945   6.984
14360SOL    HW145087   7.061   5.872   7.034
14360SOL    HW245088   7.058   5.931   6.895
14361SOL     OW45089   2.656  10.121   6.683
14361SOL    HW145090   2.692  10.209   6.690
14361SOL    HW245091   2.597  10.125   6.607
14362SOL     OW45092   4.269   1.251   6.661
14362SOL    HW145093   4.317   1.229   6.581
14362SOL    HW245094   4.181   1.215   6.647
14363SOL     OW45095   7.955   9.344  11.020
14363SOL    HW145096   8.005   9.350  10.938
14363SOL    HW245097   7.951   9.250  11.039
14364SOL     OW45098   9.762   4.614   5.020
14364SOL    HW145099   9.711   4.674   4.966
14364SOL    HW245100   9.817   4.566   4.957
14365SOL     OW45101   3.838   9.258   9.948
14365SOL    HW145102   3.841   9.244   9.853
14365SOL    HW245103   3.922   9.225   9.979
14366SOL     OW45104   5.425  10.355  10.452
14366SOL    HW145105   5.354  10.310  10.498
14366SOL    HW245106   5.503  10.336  10.504
14367SOL     OW45107   4.555   9.286   0.725
14367SOL    HW145108   4.571   9.234   0.646
14367SOL    HW245109   4.527   9.371   0.692
14368SOL     OW45110   3.875   8.659   5.785
14368SOL    HW145111   3.891   8.583   5.729
14368SOL    HW245112   3.958   8.672   5.831
14369SOL     OW45113   1.538   0.810   6.544
14369SOL    HW145114   1.462   0.824   6.488
14369SOL    HW245115   1.613   0.828   6.487
14370SOL     OW45116   2.514   7.037   8.220
14370SOL    HW145117   2.445   7.011   8.281
14370SOL    HW245118   2.485   7.121   8.185
14371SOL     OW45119   2.516   6.562   8.391
14371SOL    HW145120   2.453   6.543   8.321
14371SOL    HW245121   2.601   6.534   8.355
14372SOL     OW45122  10.061   9.555   6.235
14372SOL    HW145123  10.037   9.462   6.238
14372SOL    HW245124  10.092   9.574   6.323
14373SOL     OW45125   9.181   1.378   3.885
14373SOL    HW145126   9.231   1.354   3.963
14373SOL    HW245127   9.090   1.358   3.907
14374SOL     OW45128   9.785  10.334   8.410
14374SOL    HW145129   9.771  10.353   8.502
14374SOL    HW245130   9.879  10.347   8.397
14375SOL     OW45131   7.236   4.408  10.103
14375SOL    HW145132   7.324   4.373  10.115
14375SOL    HW245133   7.234   4.488  10.155
14376SOL     OW45134   8.465   5.569  10.160
14376SOL    HW145135   8.535   5.584  10.096
14376SOL    HW245136   8.404   5.641  10.146
14377SOL     OW45137   4.275   9.518   7.990
14377SOL    HW145138   4.313   9.561   8.066
14377SOL    HW245139   4.205   9.577   7.962
14378SOL     OW45140   0.389   7.053   5.723
14378SOL    HW145141   0.354   6.990   5.660
14378SOL    HW245142   0.429   6.999   5.791
14379SOL     OW45143   6.496   7.225  10.987
14379SOL    HW145144   6.545   7.144  10.970
14379SOL    HW245145   6.561   7.286  11.021
14380SOL     OW45146   9.821   7.022   7.928
14380SOL    HW145147   9.751   7.019   7.863
14380SOL    HW245148   9.839   6.930   7.948
14381SOL     OW45149   0.594   7.517   2.490
14381SOL    HW145150   0.533   7.492   2.559
14381SOL    HW245151   0.648   7.586   2.529
14382SOL     OW45152   6.082   0.628   2.859
14382SOL    HW145153   6.085   0.532   2.866
14382SOL    HW245154   6.103   0.645   2.767
14383SOL     OW45155   5.116   0.403   7.054
14383SOL    HW145156   5.138   0.341   6.984
14383SOL    HW245157   5.043   0.361   7.100
14384SOL     OW45158   4.489   4.320   9.225
14384SOL    HW145159   4.562   4.293   9.169
14384SOL    HW245160   4.411   4.305   9.171
14385SOL     OW45161   4.286  10.147   3.044
14385SOL    HW145162   4.211  10.195   3.010
14385SOL    HW245163   4.267  10.055   3.024
14386SOL     OW45164   1.204   8.102   2.985
14386SOL    HW145165   1.148   8.047   3.040
14386SOL    HW245166   1.153   8.116   2.905
14387SOL     OW45167   3.558  10.654   4.788
14387SOL    HW145168   3.635  10.597   4.783
14387SOL    HW245169   3.537  10.673   4.696
14388SOL     OW45170   0.215   5.496   4.405
14388SOL    HW145171   0.293   5.461   4.362
14388SOL    HW245172   0.176   5.554   4.339
14389SOL     OW45173   9.260  10.067   6.714
14389SOL    HW145174   9.353  10.048   6.704
14389SOL    HW245175   9.245  10.143   6.658
14390SOL     OW45176   5.784   2.211   0.852
14390SOL    HW145177   5.728   2.139   0.881
14390SOL    HW245178   5.773   2.278   0.919
14391SOL     OW45179   3.204   0.052   5.600
14391SOL    HW145180   3.215  -0.012   5.670
14391SOL    HW245181   3.160   0.003   5.530
14392SOL     OW45182   4.014   9.490  10.183
14392SOL    HW145183   3.961   9.417  10.215
14392SOL    HW245184   3.989   9.499  10.091
14393SOL     OW45185   6.124   5.366   8.476
14393SOL    HW145186   6.206   5.329   8.443
14393SOL    HW245187   6.129   5.459   8.455
14394SOL     OW45188   1.364   8.808   8.254
14394SOL    HW145189   1.396   8.720   8.231
14394SOL    HW245190   1.425   8.867   8.211
14395SOL     OW45191   5.494   4.842  10.729
14395SOL    HW145192   5.575   4.880  10.763
14395SOL    HW245193   5.510   4.747  10.728
14396SOL     OW45194   1.121  10.160   6.702
14396SOL    HW145195   1.156  10.075   6.728
14396SOL    HW245196   1.098  10.148   6.609
14397SOL     OW45197   3.505   0.941   5.399
14397SOL    HW145198   3.495   0.855   5.439
14397SOL    HW245199   3.463   1.001   5.460
14398SOL     OW45200   5.196   2.352   8.614
14398SOL    HW145201   5.271   2.390   8.568
14398SOL    HW245202   5.177   2.271   8.566
14399SOL     OW45203   6.284   6.834   3.950
14399SOL    HW145204   6.368   6.866   3.916
14399SOL    HW245205   6.296   6.833   4.045
14400SOL     OW45206   5.309   8.943   8.683
14400SOL    HW145207   5.303   9.002   8.758
14400SOL    HW245208   5.235   8.967   8.627
14401SOL     OW45209   9.655  11.053  10.789
14401SOL    HW145210   9.624  10.964  10.804
14401SOL    HW245211   9.620  11.076  10.703
14402SOL     OW45212   5.845   6.938   4.488
14402SOL    HW145213   5.808   6.879   4.554
14402SOL    HW245214   5.807   6.908   4.405
14403SOL     OW45215   3.078   1.064   8.144
14403SOL    HW145216   3.070   1.150   8.184
14403SOL    HW245217   3.005   1.014   8.180
14404SOL     OW45218   7.404  10.204   2.759
14404SOL    HW145219   7.476  10.168   2.707
14404SOL    HW245220   7.412  10.298   2.749
14405SOL     OW45221   9.354   0.925   7.214
14405SOL    HW145222   9.398   0.993   7.163
14405SOL    HW245223   9.383   0.939   7.304
14406SOL     OW45224   2.749   6.508   2.792
14406SOL    HW145225   2.806   6.453   2.846
14406SOL    HW245226   2.792   6.593   2.790
14407SOL     OW45227   9.560   6.691   6.753
14407SOL    HW145228   9.580   6.600   6.727
14407SOL    HW245229   9.471   6.687   6.788
14408SOL     OW45230   2.740   9.208   7.131
14408SOL    HW145231   2.758   9.276   7.195
14408SOL    HW245232   2.748   9.252   7.046
14409SOL     OW45233   3.789   9.925   1.525
14409SOL    HW145234   3.715   9.964   1.479
14409SOL    HW245235   3.767   9.832   1.531
14410SOL     OW45236   1.699   0.301   1.738
14410SOL    HW145237   1.645   0.278   1.813
14410SOL    HW245238   1.678   0.234   1.672
14411SOL     OW45239   5.885   3.218   8.231
14411SOL    HW145240   5.863   3.246   8.319
14411SOL    HW245241   5.927   3.132   8.242
14412SOL     OW45242   8.317   0.275   6.336
14412SOL    HW145243   8.281   0.334   6.270
14412SOL    HW245244   8.349   0.200   6.285
14413SOL     OW45245   9.290   8.628   1.575
14413SOL    HW145246   9.314   8.653   1.664
14413SOL    HW245247   9.257   8.708   1.535
14414SOL     OW45248   0.017   1.336   0.047
14414SOL    HW145249  -0.027   1.272  -0.009
14414SOL    HW245250  -0.052   1.397   0.073
14415SOL     OW45251  10.177   8.579   8.865
14415SOL    HW145252  10.146   8.489   8.855
14415SOL    HW245253  10.180   8.613   8.775
14416SOL     OW45254   4.056   5.928   1.465
14416SOL    HW145255   3.976   5.908   1.513
14416SOL    HW245256   4.048   6.021   1.443
14417SOL     OW45257   9.230   9.426   8.566
14417SOL    HW145258   9.273   9.464   8.489
14417SOL    HW245259   9.273   9.467   8.641
14418SOL     OW45260  10.371   7.903   6.132
14418SOL    HW145261  10.422   7.974   6.093
14418SOL    HW245262  10.415   7.823   6.101
14419SOL     OW45263   2.435   1.986   6.936
14419SOL    HW145264   2.497   2.040   6.886
14419SOL    HW245265   2.352   1.995   6.889
14420SOL     OW45266   7.867   8.022  10.426
14420SOL    HW145267   7.795   7.982  10.377
14420SOL    HW245268   7.931   8.047  10.359
14421SOL     OW45269   4.146   5.859  10.078
14421SOL    HW145270   4.203   5.859  10.000
14421SOL    HW245271   4.195   5.808  10.143
14422SOL     OW45272  10.583   4.423   8.328
14422SOL    HW145273  10.663   4.384   8.292
14422SOL    HW245274  10.517   4.354   8.320
14423SOL     OW45275   4.231   2.480   7.876
14423SOL    HW145276   4.211   2.530   7.955
14423SOL    HW245277   4.327   2.483   7.869
14424SOL     OW45278   1.073   0.205  10.937
14424SOL    HW145279   1.055   0.172  10.848
14424SOL    HW245280   1.052   0.298  10.933
14425SOL     OW45281   2.745   8.253   4.851
14425SOL    HW145282   2.686   8.315   4.893
14425SOL    HW245283   2.718   8.253   4.759
14426SOL     OW45284   2.071   6.845   0.912
14426SOL    HW145285   2.050   6.753   0.894
14426SOL    HW245286   1.998   6.894   0.874
14427SOL     OW45287   0.782   4.645   6.525
14427SOL    HW145288   0.783   4.598   6.608
14427SOL    HW245289   0.749   4.732   6.546
14428SOL     OW45290   6.453   8.083   7.117
14428SOL    HW145291   6.492   8.017   7.174
14428SOL    HW245292   6.408   8.032   7.049
14429SOL     OW45293   7.709   7.738   4.297
14429SOL    HW145294   7.786   7.691   4.330
14429SOL    HW245295   7.695   7.808   4.360
14430SOL     OW45296   9.910   1.362   7.103
14430SOL    HW145297   9.820   1.352   7.133
14430SOL    HW245298   9.908   1.337   7.010
14431SOL     OW45299   5.875   8.380   5.539
14431SOL    HW145300   5.886   8.451   5.601
14431SOL    HW245301   5.858   8.303   5.593
14432SOL     OW45302   6.854   0.574   7.294
14432SOL    HW145303   6.858   0.662   7.258
14432SOL    HW245304   6.814   0.522   7.224
14433SOL     OW45305   8.926   1.572   8.911
14433SOL    HW145306   8.885   1.609   8.989
14433SOL    HW245307   8.853   1.554   8.852
14434SOL     OW45308  10.273   9.876   7.727
14434SOL    HW145309  10.240   9.821   7.798
14434SOL    HW245310  10.298   9.958   7.769
14435SOL     OW45311   4.012  10.631   9.305
14435SOL    HW145312   3.934  10.618   9.251
14435SOL    HW245313   4.018  10.552   9.358
14436SOL     OW45314   4.647   9.327   6.161
14436SOL    HW145315   4.666   9.271   6.236
14436SOL    HW245316   4.698   9.289   6.089
14437SOL     OW45317   1.363  11.060   1.166
14437SOL    HW145318   1.409  10.996   1.112
14437SOL    HW245319   1.351  11.016   1.250
14438SOL     OW45320   9.498  10.504   4.715
14438SOL    HW145321   9.423  10.531   4.662
14438SOL    HW245322   9.461  10.449   4.783
14439SOL     OW45323   0.138   4.877   9.996
14439SOL    HW145324   0.220   4.910  10.030
14439SOL    HW245325   0.081   4.954   9.990
14440SOL     OW45326   0.401   9.927   0.666
14440SOL    HW145327   0.488   9.967   0.668
14440SOL    HW245328   0.388   9.893   0.754
14441SOL     OW45329   8.687   3.856   0.748
14441SOL    HW145330   8.761   3.816   0.702
14441SOL    HW245331   8.678   3.805   0.828
14442SOL     OW45332   1.347   0.343   2.544
14442SOL    HW145333   1.293   0.270   2.511
14442SOL    HW245334   1.400   0.369   2.468
14443SOL     OW45335   4.464   3.228   7.514
14443SOL    HW145336   4.389   3.173   7.535
14443SOL    HW245337   4.434   3.317   7.529
14444SOL     OW45338   8.893   3.645   1.711
14444SOL    HW145339   8.983   3.678   1.713
14444SOL    HW245340   8.902   3.551   1.727
14445SOL     OW45341   0.188   9.509   4.685
14445SOL    HW145342   0.168   9.597   4.653
14445SOL    HW245343   0.246   9.523   4.760
14446SOL     OW45344   9.463   4.174   6.637
14446SOL    HW145345   9.501   4.087   6.649
14446SOL    HW245346   9.506   4.229   6.702
14447SOL     OW45347   5.000   8.418   1.633
14447SOL    HW145348   4.936   8.435   1.702
14447SOL    HW245349   5.080   8.394   1.679
14448SOL     OW45350   2.141   9.827   1.429
14448SOL    HW145351   2.136   9.916   1.462
14448SOL    HW245352   2.151   9.773   1.507
14449SOL     OW45353  10.612   3.800  10.165
14449SOL    HW145354  10.562   3.745  10.225
14449SOL    HW245355  10.703   3.793  10.196
14450SOL     OW45356   0.824   1.507   5.210
14450SOL    HW145357   0.812   1.563   5.133
14450SOL    HW245358   0.791   1.421   5.183
14451SOL     OW45359   4.974   9.305   2.902
14451SOL    HW145360   4.893   9.294   2.852
14451SOL    HW245361   5.014   9.218   2.902
14452SOL     OW45362   5.727   1.460  10.176
14452SOL    HW145363   5.813   1.457  10.133
14452SOL    HW245364   5.747   1.473  10.268
14453SOL     OW45365   4.019   0.664   7.929
14453SOL    HW145366   3.978   0.633   8.009
14453SOL    HW245367   4.076   0.735   7.957
14454SOL     OW45368   7.549   2.615  10.635
14454SOL    HW145369   7.589   2.672  10.569
14454SOL    HW245370   7.555   2.527  10.597
14455SOL     OW45371   9.372   0.158   7.501
14455SOL    HW145372   9.280   0.171   7.522
14455SOL    HW245373   9.394   0.230   7.442
14456SOL     OW45374  11.024   3.411  10.512
14456SOL    HW145375  11.050   3.337  10.456
14456SOL    HW245376  11.102   3.466  10.516
14457SOL     OW45377   8.256   1.379   5.942
14457SOL    HW145378   8.172   1.370   5.896
14457SOL    HW245379   8.284   1.468   5.924
14458SOL     OW45380  10.884   1.650   8.325
14458SOL    HW145381  10.862   1.729   8.373
14458SOL    HW245382  10.864   1.578   8.385
14459SOL     OW45383   6.962   3.635   7.623
14459SOL    HW145384   6.901   3.644   7.696
14459SOL    HW245385   6.937   3.704   7.562
14460SOL     OW45386   4.878   0.564   3.506
14460SOL    HW145387   4.838   0.651   3.509
14460SOL    HW245388   4.910   0.555   3.416
14461SOL     OW45389   6.626   9.265   7.156
14461SOL    HW145390   6.541   9.301   7.133
14461SOL    HW245391   6.688   9.311   7.099
14462SOL     OW45392   4.427   6.443   0.873
14462SOL    HW145393   4.440   6.509   0.805
14462SOL    HW245394   4.469   6.479   0.951
14463SOL     OW45395   7.993   6.436   3.274
14463SOL    HW145396   7.922   6.383   3.310
14463SOL    HW245397   7.963   6.460   3.186
14464SOL     OW45398   5.319   6.734  10.191
14464SOL    HW145399   5.320   6.643  10.161
14464SOL    HW245400   5.300   6.785  10.112
14465SOL     OW45401   8.148   7.733   5.351
14465SOL    HW145402   8.241   7.711   5.349
14465SOL    HW245403   8.133   7.782   5.270
14466SOL     OW45404   6.608   0.236   5.526
14466SOL    HW145405   6.681   0.180   5.554
14466SOL    HW245406   6.648   0.322   5.512
14467SOL     OW45407   4.954   9.141   3.660
14467SOL    HW145408   5.044   9.169   3.678
14467SOL    HW245409   4.948   9.140   3.564
14468SOL     OW45410   9.128   2.997   0.661
14468SOL    HW145411   9.040   3.032   0.672
14468SOL    HW245412   9.139   2.988   0.566
14469SOL     OW45413   2.940  10.029   2.601
14469SOL    HW145414   2.854  10.058   2.572
14469SOL    HW245415   2.926   9.997   2.690
14470SOL     OW45416   6.023   5.096   7.397
14470SOL    HW145417   6.008   5.144   7.315
14470SOL    HW245418   6.093   5.144   7.441
14471SOL     OW45419   3.922  10.291   6.268
14471SOL    HW145420   3.855  10.278   6.335
14471SOL    HW245421   4.002  10.308   6.317
14472SOL     OW45422   8.997   8.688  10.423
14472SOL    HW145423   8.989   8.741  10.343
14472SOL    HW245424   8.916   8.637  10.426
14473SOL     OW45425   6.240   0.136   8.601
14473SOL    HW145426   6.310   0.109   8.660
14473SOL    HW245427   6.166   0.155   8.658
14474SOL     OW45428   3.725   2.366   5.166
14474SOL    HW145429   3.675   2.406   5.095
14474SOL    HW245430   3.780   2.436   5.200
14475SOL     OW45431   0.863   1.936   8.866
14475SOL    HW145432   0.786   1.886   8.840
14475SOL    HW245433   0.870   2.005   8.800
14476SOL     OW45434  10.714   9.532   0.360
14476SOL    HW145435  10.711   9.439   0.337
14476SOL    HW245436  10.754   9.574   0.284
14477SOL     OW45437   5.347   4.025   8.448
14477SOL    HW145438   5.355   4.053   8.357
14477SOL    HW245439   5.435   3.998   8.473
14478SOL     OW45440   4.796   4.379   9.258
14478SOL    HW145441   4.751   4.330   9.189
14478SOL    HW245442   4.726   4.406   9.317
14479SOL     OW45443   9.339   2.189   9.130
14479SOL    HW145444   9.256   2.177   9.083
14479SOL    HW245445   9.398   2.125   9.089
14480SOL     OW45446   4.127   8.254   8.121
14480SOL    HW145447   4.118   8.296   8.035
14480SOL    HW245448   4.162   8.167   8.101
14481SOL     OW45449   4.386   7.742   7.829
14481SOL    HW145450   4.385   7.672   7.894
14481SOL    HW245451   4.333   7.811   7.867
14482SOL     OW45452   8.466   1.528   0.352
14482SOL    HW145453   8.510   1.509   0.269
14482SOL    HW245454   8.451   1.441   0.390
14483SOL     OW45455   5.926   1.332  11.015
14483SOL    HW145456   5.853   1.285  10.975
14483SOL    HW245457   5.885   1.399  11.069
14484SOL     OW45458   6.547   5.308  10.872
14484SOL    HW145459   6.596   5.390  10.877
14484SOL    HW245460   6.606   5.247  10.828
14485SOL     OW45461   1.992   0.158   9.905
14485SOL    HW145462   1.921   0.199   9.856
14485SOL    HW245463   2.057   0.136   9.838
14486SOL     OW45464   1.289   1.012   9.439
14486SOL    HW145465   1.256   0.944   9.498
14486SOL    HW245466   1.382   1.020   9.461
14487SOL     OW45467   8.699   9.542  10.682
14487SOL    HW145468   8.717   9.550  10.775
14487SOL    HW245469   8.786   9.535  10.642
14488SOL     OW45470   2.936   4.137   5.746
14488SOL    HW145471   2.884   4.203   5.700
14488SOL    HW245472   2.872   4.086   5.795
14489SOL     OW45473   0.141   8.058   0.240
14489SOL    HW145474   0.191   7.993   0.190
14489SOL    HW245475   0.201   8.088   0.307
14490SOL     OW45476   0.076   0.008   7.124
14490SOL    HW145477  -0.016  -0.016   7.113
14490SOL    HW245478   0.074   0.099   7.154
14491SOL     OW45479   0.631   0.814   5.371
14491SOL    HW145480   0.573   0.738   5.371
14491SOL    HW245481   0.574   0.888   5.350
14492SOL     OW45482   2.248   5.359   4.867
14492SOL    HW145483   2.260   5.454   4.872
14492SOL    HW245484   2.233   5.332   4.957
14493SOL     OW45485   3.572   0.280   7.758
14493SOL    HW145486   3.584   0.186   7.771
14493SOL    HW245487   3.543   0.313   7.843
14494SOL     OW45488   1.905   8.624   9.138
14494SOL    HW145489   1.873   8.713   9.152
14494SOL    HW245490   1.974   8.633   9.072
14495SOL     OW45491   3.860   1.871   6.329
14495SOL    HW145492   3.903   1.830   6.254
14495SOL    HW245493   3.932   1.899   6.385
14496SOL     OW45494   2.557   5.386   9.657
14496SOL    HW145495   2.609   5.463   9.635
14496SOL    HW245496   2.472   5.420   9.684
14497SOL     OW45497   1.703   0.055  10.150
14497SOL    HW145498   1.759   0.032  10.224
14497SOL    HW245499   1.737   0.003  10.077
14498SOL     OW45500   4.578   8.749   5.664
14498SOL    HW145501   4.545   8.835   5.690
14498SOL    HW245502   4.591   8.756   5.569
14499SOL     OW45503   3.827   9.353   5.186
14499SOL    HW145504   3.921   9.363   5.204
14499SOL    HW245505   3.818   9.375   5.093
14500SOL     OW45506   3.371   3.471  10.168
14500SOL    HW145507   3.460   3.454  10.136
14500SOL    HW245508   3.348   3.391  10.216
14501SOL     OW45509   5.402   6.502   8.223
14501SOL    HW145510   5.478   6.537   8.269
14501SOL    HW245511   5.369   6.432   8.279
14502SOL     OW45512   1.596   5.364  10.521
14502SOL    HW145513   1.569   5.455  10.518
14502SOL    HW245514   1.606   5.345  10.614
14503SOL     OW45515   0.227   8.124   6.407
14503SOL    HW145516   0.294   8.155   6.346
14503SOL    HW245517   0.172   8.200   6.423
14504SOL     OW45518   1.183   3.564   4.646
14504SOL    HW145519   1.251   3.629   4.632
14504SOL    HW245520   1.102   3.608   4.621
14505SOL     OW45521   5.909  10.148   7.120
14505SOL    HW145522   5.849  10.219   7.096
14505SOL    HW245523   5.981  10.155   7.057
14506SOL     OW45524   4.911  10.513   5.328
14506SOL    HW145525   4.834  10.506   5.271
14506SOL    HW245526   4.960  10.588   5.293
14507SOL     OW45527   0.609   9.335   8.744
14507SOL    HW145528   0.584   9.420   8.780
14507SOL    HW245529   0.601   9.346   8.649
14508SOL     OW45530   4.481  10.891   6.227
14508SOL    HW145531   4.393  10.863   6.203
14508SOL    HW245532   4.536  10.864   6.153
14509SOL     OW45533   9.646   2.766   0.719
14509SOL    HW145534   9.617   2.744   0.807
14509SOL    HW245535   9.593   2.710   0.662
14510SOL     OW45536   2.870   3.149   9.221
14510SOL    HW145537   2.868   3.225   9.279
14510SOL    HW245538   2.959   3.114   9.229
14511SOL     OW45539   2.442   0.598   6.791
14511SOL    HW145540   2.504   0.537   6.832
14511SOL    HW245541   2.414   0.553   6.711
14512SOL     OW45542   3.415   5.006   2.485
14512SOL    HW145543   3.368   4.923   2.478
14512SOL    HW245544   3.351   5.066   2.522
14513SOL     OW45545  10.086   5.806  10.946
14513SOL    HW145546  10.135   5.725  10.960
14513SOL    HW245547  10.125   5.843  10.867
14514SOL     OW45548   4.147   0.394   2.744
14514SOL    HW145549   4.093   0.424   2.817
14514SOL    HW245550   4.098   0.420   2.666
14515SOL     OW45551   2.790   9.121  10.567
14515SOL    HW145552   2.712   9.085  10.526
14515SOL    HW245553   2.760   9.200  10.611
14516SOL     OW45554   6.694   1.932  10.517
14516SOL    HW145555   6.610   1.942  10.560
14516SOL    HW245556   6.728   1.848  10.549
14517SOL     OW45557   3.878   8.470   4.585
14517SOL    HW145558   3.844   8.502   4.668
14517SOL    HW245559   3.944   8.534   4.559
14518SOL     OW45560   7.279   7.489   8.958
14518SOL    HW145561   7.354   7.542   8.929
14518SOL    HW245562   7.271   7.421   8.891
14519SOL     OW45563  10.004   5.637   2.591
14519SOL    HW145564  10.094   5.649   2.622
14519SOL    HW245565   9.973   5.725   2.571
14520SOL     OW45566   6.118   6.008   2.993
14520SOL    HW145567   6.162   6.036   3.073
14520SOL    HW245568   6.168   5.931   2.964
14521SOL     OW45569   1.085   9.541   4.681
14521SOL    HW145570   1.141   9.536   4.758
14521SOL    HW245571   1.115   9.468   4.626
14522SOL     OW45572   0.958   1.044   3.797
14522SOL    HW145573   1.034   1.000   3.759
14522SOL    HW245574   0.993   1.124   3.835
14523SOL     OW45575   0.906  10.913   8.915
14523SOL    HW145576   0.977  10.876   8.862
14523SOL    HW245577   0.872  10.985   8.862
14524SOL     OW45578   4.118   8.646   5.913
14524SOL    HW145579   4.209   8.677   5.914
14524SOL    HW245580   4.113   8.584   5.986
14525SOL     OW45581   1.857  10.683  10.377
14525SOL    HW145582   1.862  10.590  10.355
14525SOL    HW245583   1.877  10.728  10.295
14526SOL     OW45584   5.164   8.807   9.906
14526SOL    HW145585   5.136   8.782   9.818
14526SOL    HW245586   5.255   8.835   9.895
14527SOL     OW45587   0.998   9.481   7.128
14527SOL    HW145588   1.072   9.516   7.177
14527SOL    HW245589   1.029   9.475   7.037
14528SOL     OW45590   0.540   0.629   1.882
14528SOL    HW145591   0.612   0.685   1.912
14528SOL    HW245592   0.547   0.550   1.936
14529SOL     OW45593   6.815   7.060   0.189
14529SOL    HW145594   6.795   7.123   0.258
14529SOL    HW245595   6.899   7.021   0.216
14530SOL     OW45596   3.067  10.117   1.436
14530SOL    HW145597   3.109  10.041   1.477
14530SOL    HW245598   2.986  10.082   1.399
14531SOL     OW45599   6.518   2.813   7.623
14531SOL    HW145600   6.468   2.732   7.612
14531SOL    HW245601   6.456   2.873   7.664
14532SOL     OW45602   2.474   3.458   3.117
14532SOL    HW145603   2.404   3.517   3.090
14532SOL    HW245604   2.441   3.416   3.196
14533SOL     OW45605   1.347   0.551   5.812
14533SOL    HW145606   1.289   0.611   5.765
14533SOL    HW245607   1.391   0.605   5.877
14534SOL     OW45608   5.137   4.228   2.835
14534SOL    HW145609   5.158   4.308   2.787
14534SOL    HW245610   5.210   4.217   2.896
14535SOL     OW45611   2.490   9.968   7.133
14535SOL    HW145612   2.469   9.907   7.062
14535SOL    HW245613   2.498   9.913   7.210
14536SOL     OW45614   1.362   6.477  10.124
14536SOL    HW145615   1.394   6.556  10.080
14536SOL    HW245616   1.397   6.405  10.071
14537SOL     OW45617   8.053  10.000   9.063
14537SOL    HW145618   8.007   9.941   9.003
14537SOL    HW245619   8.110   9.942   9.114
14538SOL     OW45620   3.577   4.295   0.261
14538SOL    HW145621   3.643   4.358   0.289
14538SOL    HW245622   3.587   4.290   0.166
14539SOL     OW45623   4.489  10.233   3.882
14539SOL    HW145624   4.433  10.250   3.957
14539SOL    HW245625   4.531  10.317   3.864
14540SOL     OW45626   0.382   2.110   2.979
14540SOL    HW145627   0.342   2.024   2.962
14540SOL    HW245628   0.355   2.132   3.068
14541SOL     OW45629   8.224   3.599  10.869
14541SOL    HW145630   8.189   3.595  10.958
14541SOL    HW245631   8.284   3.524  10.863
14542SOL     OW45632   1.083   0.991   7.896
14542SOL    HW145633   0.988   0.991   7.904
14542SOL    HW245634   1.101   0.922   7.831
14543SOL     OW45635   4.267   3.797   1.063
14543SOL    HW145636   4.221   3.721   1.027
14543SOL    HW245637   4.360   3.778   1.048
14544SOL     OW45638   5.200   9.131   0.061
14544SOL    HW145639   5.140   9.138   0.135
14544SOL    HW245640   5.187   9.211   0.012
14545SOL     OW45641  10.965   0.991   7.948
14545SOL    HW145642  11.017   0.911   7.952
14545SOL    HW245643  11.017   1.051   7.895
14546SOL     OW45644   4.617   8.593  10.473
14546SOL    HW145645   4.580   8.658  10.532
14546SOL    HW245646   4.609   8.510  10.520
14547SOL     OW45647   4.308   9.225   6.660
14547SOL    HW145648   4.237   9.160   6.657
14547SOL    HW245649   4.275   9.299   6.610
14548SOL     OW45650   9.880   9.159   8.200
14548SOL    HW145651   9.863   9.181   8.108
14548SOL    HW245652   9.797   9.173   8.244
14549SOL     OW45653   8.126   2.093   8.137
14549SOL    HW145654   8.071   2.104   8.059
14549SOL    HW245655   8.123   2.177   8.181
14550SOL     OW45656   2.666  10.852   4.705
14550SOL    HW145657   2.693  10.767   4.740
14550SOL    HW245658   2.582  10.870   4.746
14551SOL     OW45659   5.494   9.312   3.270
14551SOL    HW145660   5.466   9.308   3.361
14551SOL    HW245661   5.479   9.223   3.237
14552SOL     OW45662   2.657  10.261  10.475
14552SOL    HW145663   2.671  10.172  10.443
14552SOL    HW245664   2.569  10.259  10.512
14553SOL     OW45665   7.121  10.857  10.023
14553SOL    HW145666   7.074  10.796  10.080
14553SOL    HW245667   7.067  10.936  10.023
14554SOL     OW45668   3.173   4.341   1.365
14554SOL    HW145669   3.221   4.314   1.287
14554SOL    HW245670   3.082   4.321   1.345
14555SOL     OW45671   4.654   7.249   3.540
14555SOL    HW145672   4.601   7.279   3.466
14555SOL    HW245673   4.642   7.154   3.541
14556SOL     OW45674   5.894   7.992   6.661
14556SOL    HW145675   5.866   7.911   6.703
14556SOL    HW245676   5.846   8.061   6.706
14557SOL     OW45677   8.872   8.236  11.058
14557SOL    HW145678   8.863   8.161  10.999
14557SOL    HW245679   8.785   8.275  11.061
14558SOL     OW45680   0.314   7.725   5.074
14558SOL    HW145681   0.295   7.645   5.025
14558SOL    HW245682   0.269   7.794   5.025
14559SOL     OW45683   4.491   5.392   3.553
14559SOL    HW145684   4.480   5.312   3.605
14559SOL    HW245685   4.516   5.459   3.617
14560SOL     OW45686   0.707   2.357   0.298
14560SOL    HW145687   0.786   2.353   0.243
14560SOL    HW245688   0.739   2.343   0.387
14561SOL     OW45689   1.823   7.840   0.789
14561SOL    HW145690   1.822   7.927   0.827
14561SOL    HW245691   1.910   7.806   0.809
14562SOL     OW45692   8.786   5.601  10.834
14562SOL    HW145693   8.735   5.530  10.795
14562SOL    HW245694   8.877   5.574  10.821
14563SOL     OW45695   6.433   9.804   2.528
14563SOL    HW145696   6.383   9.768   2.601
14563SOL    HW245697   6.449   9.728   2.471
14564SOL     OW45698   7.540  10.591   3.055
14564SOL    HW145699   7.502  10.505   3.037
14564SOL    HW245700   7.560  10.627   2.968
14565SOL     OW45701   7.170   3.270   7.588
14565SOL    HW145702   7.212   3.356   7.581
14565SOL    HW245703   7.237   3.214   7.628
14566SOL     OW45704   4.250   9.809   0.347
14566SOL    HW145705   4.161   9.842   0.334
14566SOL    HW245706   4.286   9.801   0.258
14567SOL     OW45707   5.533   4.549  10.746
14567SOL    HW145708   5.536   4.481  10.813
14567SOL    HW245709   5.613   4.535  10.695
14568SOL     OW45710   0.336   6.508   1.038
14568SOL    HW145711   0.412   6.487   0.984
14568SOL    HW245712   0.365   6.579   1.094
14569SOL     OW45713   1.705   7.934  10.508
14569SOL    HW145714   1.758   8.012  10.521
14569SOL    HW245715   1.733   7.874  10.577
14570SOL     OW45716   4.245   0.809   4.013
14570SOL    HW145717   4.253   0.832   3.920
14570SOL    HW245718   4.154   0.783   4.023
14571SOL     OW45719   6.013   7.370  10.443
14571SOL    HW145720   6.051   7.352  10.529
14571SOL    HW245721   5.934   7.420  10.462
14572SOL     OW45722   2.527   6.813   7.508
14572SOL    HW145723   2.478   6.735   7.533
14572SOL    HW245724   2.472   6.886   7.534
14573SOL     OW45725   1.144  10.436   8.272
14573SOL    HW145726   1.148  10.527   8.241
14573SOL    HW245727   1.216  10.393   8.226
14574SOL     OW45728   1.120   1.748   5.936
14574SOL    HW145729   1.034   1.773   5.903
14574SOL    HW245730   1.107   1.735   6.030
14575SOL     OW45731   8.482   9.349   9.994
14575SOL    HW145732   8.519   9.284   9.933
14575SOL    HW245733   8.463   9.425   9.939
14576SOL     OW45734   3.865   8.346   3.823
14576SOL    HW145735   3.829   8.407   3.886
14576SOL    HW245736   3.939   8.304   3.868
14577SOL     OW45737   3.882   4.497   3.069
14577SOL    HW145738   3.874   4.467   3.159
14577SOL    HW245739   3.894   4.591   3.076
14578SOL     OW45740   9.296   8.354   0.058
14578SOL    HW145741   9.352   8.432   0.059
14578SOL    HW245742   9.325   8.303   0.134
14579SOL     OW45743  10.922   2.136   3.540
14579SOL    HW145744  10.846   2.082   3.517
14579SOL    HW245745  10.960   2.092   3.616
14580SOL     OW45746   1.418  10.770   8.888
14580SOL    HW145747   1.477  10.812   8.825
14580SOL    HW245748   1.366  10.842   8.924
14581SOL     OW45749  10.412   1.111   9.829
14581SOL    HW145750  10.492   1.157   9.805
14581SOL    HW245751  10.358   1.177   9.871
14582SOL     OW45752   6.709   1.861   7.777
14582SOL    HW145753   6.626   1.903   7.801
14582SOL    HW245754   6.719   1.789   7.840
14583SOL     OW45755  10.788   6.328   8.679
14583SOL    HW145756  10.736   6.262   8.725
14583SOL    HW245757  10.821   6.385   8.748
14584SOL     OW45758   6.745   4.195   8.938
14584SOL    HW145759   6.658   4.216   8.970
14584SOL    HW245760   6.804   4.222   9.008
14585SOL     OW45761   0.990   5.208   0.871
14585SOL    HW145762   1.075   5.176   0.841
14585SOL    HW245763   0.974   5.160   0.952
14586SOL     OW45764   9.719   2.267   8.407
14586SOL    HW145765   9.747   2.329   8.340
14586SOL    HW245766   9.682   2.194   8.357
14587SOL     OW45767   6.446   8.959   0.805
14587SOL    HW145768   6.446   8.863   0.797
14587SOL    HW245769   6.379   8.978   0.870
14588SOL     OW45770   2.528   6.543  10.302
14588SOL    HW145771   2.527   6.460  10.254
14588SOL    HW245772   2.587   6.527  10.375
14589SOL     OW45773   6.815   6.798   0.717
14589SOL    HW145774   6.786   6.820   0.628
14589SOL    HW245775   6.874   6.869   0.741
14590SOL     OW45776   0.281   5.685   0.422
14590SOL    HW145777   0.316   5.705   0.508
14590SOL    HW245778   0.342   5.621   0.385
14591SOL     OW45779   2.393   4.790   5.200
14591SOL    HW145780   2.477   4.835   5.205
14591SOL    HW245781   2.366   4.779   5.291
14592SOL     OW45782   1.116   9.087  10.166
14592SOL    HW145783   1.193   9.052  10.211
14592SOL    HW245784   1.121   9.181  10.180
14593SOL     OW45785   9.980  10.247   0.675
14593SOL    HW145786  10.057  10.266   0.621
14593SOL    HW245787  10.016  10.221   0.759
14594SOL     OW45788   2.334   9.639   3.460
14594SOL    HW145789   2.387   9.606   3.532
14594SOL    HW245790   2.262   9.686   3.501
14595SOL     OW45791   8.813   3.596   6.401
14595SOL    HW145792   8.732   3.594   6.452
14595SOL    HW245793   8.817   3.685   6.366
14596SOL     OW45794   1.369   2.043   3.536
14596SOL    HW145795   1.313   2.106   3.580
14596SOL    HW245796   1.345   1.958   3.575
14597SOL     OW45797   0.072  10.951   0.891
14597SOL    HW145798   0.083  11.010   0.816
14597SOL    HW245799   0.050  10.867   0.851
14598SOL     OW45800   7.601   2.504   3.738
14598SOL    HW145801   7.601   2.598   3.724
14598SOL    HW245802   7.690   2.476   3.715
14599SOL     OW45803   4.665   4.171   3.779
14599SOL    HW145804   4.721   4.247   3.795
14599SOL    HW245805   4.724   4.096   3.784
14600SOL     OW45806   3.492   3.078   6.160
14600SOL    HW145807   3.571   3.103   6.208
14600SOL    HW245808   3.508   2.988   6.132
14601SOL     OW45809   5.456   2.988   9.679
14601SOL    HW145810   5.458   3.081   9.659
14601SOL    HW245811   5.422   2.947   9.599
14602SOL     OW45812   5.930  10.079   3.898
14602SOL    HW145813   6.009  10.132   3.910
14602SOL    HW245814   5.927  10.023   3.975
14603SOL     OW45815   6.411  10.114  10.159
14603SOL    HW145816   6.465  10.090  10.084
14603SOL    HW245817   6.329  10.067  10.145
14604SOL     OW45818  10.263   9.025   4.013
14604SOL    HW145819  10.251   9.113   3.977
14604SOL    HW245820  10.190   8.974   3.977
14605SOL     OW45821   3.251   0.304   0.682
14605SOL    HW145822   3.162   0.313   0.716
14605SOL    HW245823   3.260   0.375   0.618
14606SOL     OW45824   4.358   6.591  10.632
14606SOL    HW145825   4.275   6.546  10.646
14606SOL    HW245826   4.334   6.681  10.614
14607SOL     OW45827   3.481   9.938   2.166
14607SOL    HW145828   3.536   9.994   2.220
14607SOL    HW245829   3.524   9.938   2.080
14608SOL     OW45830   9.782  10.399  10.993
14608SOL    HW145831   9.872  10.377  11.018
14608SOL    HW245832   9.731  10.323  11.021
14609SOL     OW45833   7.976   9.816   4.418
14609SOL    HW145834   8.008   9.816   4.327
14609SOL    HW245835   7.890   9.856   4.413
14610SOL     OW45836   2.711   5.106   2.669
14610SOL    HW145837   2.656   5.159   2.725
14610SOL    HW245838   2.702   5.017   2.703
14611SOL     OW45839   4.821   0.430   1.838
14611SOL    HW145840   4.774   0.351   1.864
14611SOL    HW245841   4.867   0.405   1.758
14612SOL     OW45842   1.972   4.913   7.902
14612SOL    HW145843   2.036   4.845   7.922
14612SOL    HW245844   1.993   4.940   7.812
14613SOL     OW45845   0.286   0.695   4.187
14613SOL    HW145846   0.224   0.766   4.202
14613SOL    HW245847   0.321   0.674   4.273
14614SOL     OW45848   1.969   8.878  10.182
14614SOL    HW145849   2.052   8.921  10.164
14614SOL    HW245850   1.976   8.793  10.137
14615SOL     OW45851   2.010  10.629  11.025
14615SOL    HW145852   2.076  10.680  11.072
14615SOL    HW245853   1.996  10.551  11.078
14616SOL     OW45854   0.454   5.990   8.250
14616SOL    HW145855   0.455   5.932   8.174
14616SOL    HW245856   0.497   6.070   8.220
14617SOL     OW45857  10.081   8.416   0.155
14617SOL    HW145858  10.019   8.344   0.170
14617SOL    HW245859  10.137   8.385   0.084
14618SOL     OW45860   3.728   7.319   0.598
14618SOL    HW145861   3.693   7.324   0.687
14618SOL    HW245862   3.781   7.398   0.588
14619SOL     OW45863  10.258   9.684   6.103
14619SOL    HW145864  10.186   9.645   6.153
14619SOL    HW245865  10.251   9.643   6.016
14620SOL     OW45866   4.080   2.041  10.372
14620SOL    HW145867   4.101   2.072  10.284
14620SOL    HW245868   4.121   2.105  10.430
14621SOL     OW45869   1.618   0.921   0.863
14621SOL    HW145870   1.611   1.011   0.893
14621SOL    HW245871   1.545   0.875   0.905
14622SOL     OW45872   3.365   5.256   9.136
14622SOL    HW145873   3.441   5.289   9.184
14622SOL    HW245874   3.343   5.174   9.180
14623SOL     OW45875  10.364   1.434   0.119
14623SOL    HW145876  10.455   1.423   0.148
14623SOL    HW245877  10.364   1.517   0.071
14624SOL     OW45878   2.387   1.231   7.816
14624SOL    HW145879   2.403   1.289   7.890
14624SOL    HW245880   2.378   1.144   7.856
14625SOL     OW45881   9.025   7.537   4.985
14625SOL    HW145882   8.964   7.464   4.995
14625SOL    HW245883   8.995   7.583   4.906
14626SOL     OW45884   5.865   8.900   5.519
14626SOL    HW145885   5.818   8.860   5.592
14626SOL    HW245886   5.952   8.919   5.553
14627SOL     OW45887   7.557   9.273   8.465
14627SOL    HW145888   7.610   9.196   8.487
14627SOL    HW245889   7.617   9.331   8.418
14628SOL     OW45890   7.046   5.914   2.660
14628SOL    HW145891   6.967   5.968   2.659
14628SOL    HW245892   7.017   5.829   2.626
14629SOL     OW45893   9.061  10.004  10.765
14629SOL    HW145894   9.101   9.945  10.701
14629SOL    HW245895   9.053   9.951  10.844
14630SOL     OW45896   0.399   2.222   1.725
14630SOL    HW145897   0.309   2.200   1.700
14630SOL    HW245898   0.406   2.316   1.708
14631SOL     OW45899   2.212   9.227   5.827
14631SOL    HW145900   2.168   9.277   5.758
14631SOL    HW245901   2.243   9.148   5.782
14632SOL     OW45902  10.662   3.086  10.397
14632SOL    HW145903  10.707   3.042  10.469
14632SOL    HW245904  10.614   3.016  10.352
14633SOL     OW45905   2.598  10.026   0.342
14633SOL    HW145906   2.675   9.969   0.349
14633SOL    HW245907   2.618  10.084   0.269
14634SOL     OW45908   2.568   8.615   7.085
14634SOL    HW145909   2.618   8.624   7.004
14634SOL    HW245910   2.480   8.644   7.062
14635SOL     OW45911   6.996   6.349   7.796
14635SOL    HW145912   6.942   6.386   7.726
14635SOL    HW245913   6.941   6.354   7.874
14636SOL     OW45914   1.477   8.641   7.861
14636SOL    HW145915   1.472   8.734   7.841
14636SOL    HW245916   1.449   8.633   7.952
14637SOL     OW45917   8.918   1.934   3.160
14637SOL    HW145918   8.907   1.847   3.198
14637SOL    HW245919   8.862   1.991   3.213
14638SOL     OW45920   9.919   8.565  10.062
14638SOL    HW145921   9.894   8.601  10.147
14638SOL    HW245922   9.846   8.587  10.004
14639SOL     OW45923   8.509  10.845   4.586
14639SOL    HW145924   8.441  10.898   4.545
14639SOL    HW245925   8.591  10.890   4.563
14640SOL     OW45926   6.681   8.673   0.364
14640SOL    HW145927   6.766   8.690   0.405
14640SOL    HW245928   6.671   8.578   0.369
14641SOL     OW45929   9.025   6.375  10.611
14641SOL    HW145930   9.028   6.409  10.700
14641SOL    HW245931   9.037   6.280  10.621
14642SOL     OW45932   1.735   3.534   6.962
14642SOL    HW145933   1.659   3.500   7.009
14642SOL    HW245934   1.810   3.500   7.010
14643SOL     OW45935   1.645  10.520   9.530
14643SOL    HW145936   1.592  10.595   9.501
14643SOL    HW245937   1.676  10.480   9.449
14644SOL     OW45938   4.001   6.324   6.220
14644SOL    HW145939   4.069   6.282   6.167
14644SOL    HW245940   3.989   6.265   6.295
14645SOL     OW45941  10.171   0.494   4.151
14645SOL    HW145942  10.096   0.451   4.192
14645SOL    HW245943  10.133   0.545   4.079
14646SOL     OW45944   7.369   9.310   9.467
14646SOL    HW145945   7.344   9.402   9.463
14646SOL    HW245946   7.286   9.262   9.466
14647SOL     OW45947  10.940   6.695   3.829
14647SOL    HW145948  10.947   6.624   3.765
14647SOL    HW245949  10.856   6.680   3.872
14648SOL     OW45950   7.131   9.943  10.857
14648SOL    HW145951   7.221   9.962  10.831
14648SOL    HW245952   7.132   9.850  10.881
14649SOL     OW45953   3.395   3.002   4.128
14649SOL    HW145954   3.413   2.908   4.129
14649SOL    HW245955   3.300   3.008   4.128
14650SOL     OW45956   4.557   6.479   2.347
14650SOL    HW145957   4.532   6.431   2.426
14650SOL    HW245958   4.554   6.571   2.372
14651SOL     OW45959   2.964   8.923  10.670
14651SOL    HW145960   2.887   8.867  10.660
14651SOL    HW245961   2.937   9.007  10.634
14652SOL     OW45962   4.915   7.588   1.675
14652SOL    HW145963   4.882   7.498   1.665
14652SOL    HW245964   4.837   7.642   1.671
14653SOL     OW45965   0.378   8.414   6.921
14653SOL    HW145966   0.374   8.381   6.831
14653SOL    HW245967   0.470   8.406   6.945
14654SOL     OW45968   1.398   6.382  10.363
14654SOL    HW145969   1.384   6.435  10.284
14654SOL    HW245970   1.492   6.366  10.364
14655SOL     OW45971   1.606   7.770   2.412
14655SOL    HW145972   1.570   7.758   2.324
14655SOL    HW245973   1.635   7.682   2.438
14656SOL     OW45974   1.698  10.025   9.246
14656SOL    HW145975   1.658   9.968   9.179
14656SOL    HW245976   1.688   9.976   9.328
14657SOL     OW45977   9.632   2.236   7.745
14657SOL    HW145978   9.677   2.253   7.662
14657SOL    HW245979   9.599   2.146   7.736
14658SOL     OW45980   7.957   9.959   3.874
14658SOL    HW145981   7.946   9.995   3.786
14658SOL    HW245982   7.873   9.974   3.917
14659SOL     OW45983   7.982   6.827   7.518
14659SOL    HW145984   8.040   6.788   7.583
14659SOL    HW245985   8.039   6.843   7.442
14660SOL     OW45986  10.353   0.019  10.314
14660SOL    HW145987  10.288  -0.050  10.330
14660SOL    HW245988  10.422  -0.025  10.263
14661SOL     OW45989   5.638   8.264   2.502
14661SOL    HW145990   5.565   8.221   2.546
14661SOL    HW245991   5.683   8.312   2.571
14662SOL     OW45992  10.391   8.132   5.673
14662SOL    HW145993  10.446   8.206   5.649
14662SOL    HW245994  10.317   8.170   5.720
14663SOL     OW45995   0.545   6.258   0.644
14663SOL    HW145996   0.530   6.325   0.577
14663SOL    HW245997   0.460   6.245   0.685
14664SOL     OW45998   3.837   1.402   8.233
14664SOL    HW145999   3.889   1.478   8.208
14664SOL    HW246000   3.847   1.341   8.160
14665SOL     OW46001   3.461   1.095   2.160
14665SOL    HW146002   3.420   1.034   2.099
14665SOL    HW246003   3.528   1.139   2.108
14666SOL     OW46004   3.279   9.044   0.258
14666SOL    HW146005   3.225   8.975   0.298
14666SOL    HW246006   3.224   9.122   0.260
14667SOL     OW46007   3.371   9.625   0.366
14667SOL    HW146008   3.454   9.605   0.410
14667SOL    HW246009   3.346   9.711   0.398
14668SOL     OW46010   5.268   9.931   7.461
14668SOL    HW146011   5.308   9.953   7.376
14668SOL    HW246012   5.175   9.948   7.449
14669SOL     OW46013   8.853   0.204   2.857
14669SOL    HW146014   8.925   0.142   2.872
14669SOL    HW246015   8.775   0.149   2.852
14670SOL     OW46016   0.662  10.220   1.834
14670SOL    HW146017   0.735  10.271   1.800
14670SOL    HW246018   0.604  10.285   1.874
14671SOL     OW46019   6.409   8.778   4.950
14671SOL    HW146020   6.352   8.704   4.973
14671SOL    HW246021   6.384   8.800   4.860
14672SOL     OW46022   3.213   1.289   9.651
14672SOL    HW146023   3.255   1.265   9.568
14672SOL    HW246024   3.139   1.343   9.625
14673SOL     OW46025   6.127   8.892   1.238
14673SOL    HW146026   6.128   8.868   1.330
14673SOL    HW246027   6.219   8.886   1.210
14674SOL     OW46028   0.400   9.950   9.277
14674SOL    HW146029   0.329   9.890   9.300
14674SOL    HW246030   0.453   9.900   9.214
14675SOL     OW46031  10.503   8.821  10.115
14675SOL    HW146032  10.449   8.742  10.122
14675SOL    HW246033  10.534   8.837  10.204
14676SOL     OW46034   2.206   0.694   8.861
14676SOL    HW146035   2.119   0.718   8.892
14676SOL    HW246036   2.245   0.776   8.832
14677SOL     OW46037   8.853   2.871  11.055
14677SOL    HW146038   8.809   2.873  11.140
14677SOL    HW246039   8.939   2.832  11.073
14678SOL     OW46040   6.943   7.183   7.619
14678SOL    HW146041   6.931   7.250   7.552
14678SOL    HW246042   6.874   7.119   7.601
14679SOL     OW46043   0.609   9.527   8.177
14679SOL    HW146044   0.657   9.469   8.117
14679SOL    HW246045   0.598   9.475   8.256
14680SOL     OW46046   7.061   4.053   1.857
14680SOL    HW146047   7.142   4.015   1.823
14680SOL    HW246048   7.035   4.116   1.790
14681SOL     OW46049   1.972   8.283   6.728
14681SOL    HW146050   2.008   8.368   6.753
14681SOL    HW246051   2.012   8.221   6.789
14682SOL     OW46052   8.106   9.108   0.066
14682SOL    HW146053   8.080   9.146   0.150
14682SOL    HW246054   8.034   9.050   0.043
14683SOL     OW46055   1.418   6.696   3.272
14683SOL    HW146056   1.394   6.653   3.354
14683SOL    HW246057   1.390   6.787   3.283
14684SOL     OW46058   1.556   4.632   6.785
14684SOL    HW146059   1.489   4.581   6.830
14684SOL    HW246060   1.550   4.719   6.823
14685SOL     OW46061   7.233   8.594   8.902
14685SOL    HW146062   7.322   8.603   8.937
14685SOL    HW246063   7.183   8.554   8.973
14686SOL     OW46064   4.956   8.587   8.482
14686SOL    HW146065   4.948   8.495   8.454
14686SOL    HW246066   5.048   8.596   8.506
14687SOL     OW46067   0.988   9.868   8.906
14687SOL    HW146068   1.081   9.864   8.883
14687SOL    HW246069   0.947   9.804   8.848
14688SOL     OW46070   3.779   6.701   0.938
14688SOL    HW146071   3.821   6.671   1.019
14688SOL    HW246072   3.839   6.674   0.868
14689SOL     OW46073   6.316   8.349   7.390
14689SOL    HW146074   6.345   8.437   7.414
14689SOL    HW246075   6.234   8.363   7.343
14690SOL     OW46076   2.347   0.172   9.354
14690SOL    HW146077   2.356   0.092   9.301
14690SOL    HW246078   2.370   0.144   9.442
14691SOL     OW46079   4.289   7.911   1.728
14691SOL    HW146080   4.225   7.843   1.705
14691SOL    HW246081   4.294   7.908   1.823
14692SOL     OW46082   9.654   0.804   8.809
14692SOL    HW146083   9.698   0.726   8.843
14692SOL    HW246084   9.595   0.771   8.741
14693SOL     OW46085   9.418   0.682   6.651
14693SOL    HW146086   9.467   0.606   6.684
14693SOL    HW246087   9.454   0.757   6.698
14694SOL     OW46088   9.586   2.043   9.404
14694SOL    HW146089   9.533   1.970   9.370
14694SOL    HW246090   9.575   2.039   9.499
14695SOL     OW46091   6.048   8.718   6.597
14695SOL    HW146092   6.142   8.699   6.604
14695SOL    HW246093   6.036   8.798   6.647
14696SOL     OW46094  10.126   8.300   1.621
14696SOL    HW146095  10.148   8.380   1.668
14696SOL    HW246096  10.084   8.244   1.686
14697SOL     OW46097   7.581   2.726   1.320
14697SOL    HW146098   7.494   2.741   1.284
14697SOL    HW246099   7.590   2.791   1.389
14698SOL     OW46100   2.703   8.635   0.319
14698SOL    HW146101   2.626   8.601   0.363
14698SOL    HW246102   2.713   8.578   0.242
14699SOL     OW46103   0.189   8.806   9.515
14699SOL    HW146104   0.219   8.884   9.469
14699SOL    HW246105   0.093   8.809   9.508
14700SOL     OW46106   8.388   8.789   8.127
14700SOL    HW146107   8.376   8.699   8.096
14700SOL    HW246108   8.483   8.799   8.136
14701SOL     OW46109   9.856   5.618   6.905
14701SOL    HW146110   9.771   5.655   6.882
14701SOL    HW246111   9.867   5.544   6.844
14702SOL     OW46112   9.787   4.989   4.240
14702SOL    HW146113   9.830   4.953   4.162
14702SOL    HW246114   9.725   5.053   4.205
14703SOL     OW46115   1.927   6.539   7.660
14703SOL    HW146116   1.942   6.633   7.661
14703SOL    HW246117   1.834   6.530   7.640
14704SOL     OW46118   3.673  10.691   3.560
14704SOL    HW146119   3.593  10.743   3.571
14704SOL    HW246120   3.647  10.601   3.580
14705SOL     OW46121   3.902   2.909   4.792
14705SOL    HW146122   3.827   2.951   4.834
14705SOL    HW246123   3.941   2.978   4.738
14706SOL     OW46124   5.437   3.443  10.463
14706SOL    HW146125   5.427   3.479  10.551
14706SOL    HW246126   5.355   3.396  10.446
14707SOL     OW46127   0.855   8.202   9.924
14707SOL    HW146128   0.870   8.112   9.954
14707SOL    HW246129   0.942   8.242   9.922
14708SOL     OW46130   8.110   0.201   0.710
14708SOL    HW146131   8.184   0.257   0.686
14708SOL    HW246132   8.145   0.143   0.778
14709SOL     OW46133   1.276   6.911   0.732
14709SOL    HW146134   1.228   6.897   0.650
14709SOL    HW246135   1.368   6.918   0.705
14710SOL     OW46136   5.939   8.071   0.178
14710SOL    HW146137   5.881   8.118   0.238
14710SOL    HW246138   5.891   8.068   0.095
14711SOL     OW46139   4.606   3.938   9.098
14711SOL    HW146140   4.516   3.968   9.085
14711SOL    HW246141   4.622   3.877   9.025
14712SOL     OW46142   9.861   9.567  11.082
14712SOL    HW146143   9.949   9.598  11.102
14712SOL    HW246144   9.804   9.615  11.141
14713SOL     OW46145   3.576  10.065   6.867
14713SOL    HW146146   3.499  10.019   6.900
14713SOL    HW246147   3.641  10.057   6.937
14714SOL     OW46148   4.586  10.588   0.770
14714SOL    HW146149   4.583  10.581   0.865
14714SOL    HW246150   4.495  10.602   0.744
14715SOL     OW46151   6.494   7.310  10.719
14715SOL    HW146152   6.487   7.294  10.813
14715SOL    HW246153   6.462   7.229  10.678
14716SOL     OW46154   1.488   5.225   8.745
14716SOL    HW146155   1.504   5.161   8.814
14716SOL    HW246156   1.530   5.305   8.776
14717SOL     OW46157   1.799  10.325   3.014
14717SOL    HW146158   1.894  10.332   3.025
14717SOL    HW246159   1.787  10.248   2.957
14718SOL     OW46160   6.896   2.044  10.683
14718SOL    HW146161   6.869   2.086  10.764
14718SOL    HW246162   6.814   2.027  10.636
14719SOL     OW46163   1.519   1.973   4.636
14719SOL    HW146164   1.478   1.991   4.720
14719SOL    HW246165   1.511   1.878   4.626
14720SOL     OW46166   0.786  10.391   9.522
14720SOL    HW146167   0.738  10.372   9.441
14720SOL    HW246168   0.821  10.479   9.509
14721SOL     OW46169   1.783   4.768  10.895
14721SOL    HW146170   1.735   4.849  10.909
14721SOL    HW246171   1.875   4.793  10.900
14722SOL     OW46172   4.682  10.991   1.315
14722SOL    HW146173   4.712  10.951   1.233
14722SOL    HW246174   4.728  11.075   1.319
14723SOL     OW46175   8.343   9.001   0.636
14723SOL    HW146176   8.395   8.932   0.677
14723SOL    HW246177   8.407   9.055   0.590
14724SOL     OW46178  10.459   3.094   2.192
14724SOL    HW146179  10.425   3.068   2.106
14724SOL    HW246180  10.477   3.011   2.237
14725SOL     OW46181   7.226   9.212   2.181
14725SOL    HW146182   7.279   9.165   2.245
14725SOL    HW246183   7.145   9.232   2.227
14726SOL     OW46184   1.612   5.925   3.374
14726SOL    HW146185   1.522   5.937   3.345
14726SOL    HW246186   1.656   6.006   3.350
14727SOL     OW46187  10.814   2.854   0.754
14727SOL    HW146188  10.821   2.930   0.697
14727SOL    HW246189  10.763   2.791   0.703
14728SOL     OW46190   4.563   3.035   7.979
14728SOL    HW146191   4.558   2.952   7.931
14728SOL    HW246192   4.541   3.012   8.069
14729SOL     OW46193  10.211   8.068   3.419
14729SOL    HW146194  10.174   8.118   3.346
14729SOL    HW246195  10.273   8.008   3.378
14730SOL     OW46196   2.536  10.077   2.116
14730SOL    HW146197   2.584  10.144   2.165
14730SOL    HW246198   2.602  10.010   2.095
14731SOL     OW46199   2.757   0.133   9.832
14731SOL    HW146200   2.818   0.136   9.905
14731SOL    HW246201   2.767   0.044   9.797
14732SOL     OW46202   0.961  10.502   6.739
14732SOL    HW146203   0.987  10.445   6.811
14732SOL    HW246204   0.867  10.486   6.728
14733SOL     OW46205   5.549   8.310   7.405
14733SOL    HW146206   5.501   8.232   7.375
14733SOL    HW246207   5.639   8.279   7.419
14734SOL     OW46208   5.080   2.245   9.922
14734SOL    HW146209   5.069   2.281  10.009
14734SOL    HW246210   5.170   2.268   9.897
14735SOL     OW46211   3.155   6.839   8.506
14735SOL    HW146212   3.101   6.763   8.484
14735SOL    HW246213   3.095   6.900   8.547
14736SOL     OW46214   5.777   5.837   7.199
14736SOL    HW146215   5.759   5.905   7.134
14736SOL    HW246216   5.692   5.817   7.237
14737SOL     OW46217   5.163  10.821   0.147
14737SOL    HW146218   5.219  10.880   0.198
14737SOL    HW246219   5.079  10.867   0.140
14738SOL     OW46220  10.312   4.678  11.025
14738SOL    HW146221  10.326   4.752  11.084
14738SOL    HW246222  10.259   4.616  11.076
14739SOL     OW46223  10.357  10.551   1.704
14739SOL    HW146224  10.338  10.476   1.760
14739SOL    HW246225  10.274  10.569   1.659
14740SOL     OW46226   0.233   5.038   7.964
14740SOL    HW146227   0.255   5.104   8.030
14740SOL    HW246228   0.268   5.073   7.882
14741SOL     OW46229   2.798   7.599  10.846
14741SOL    HW146230   2.785   7.657  10.921
14741SOL    HW246231   2.722   7.615  10.790
14742SOL     OW46232   7.482   4.545  10.934
14742SOL    HW146233   7.470   4.476  10.869
14742SOL    HW246234   7.570   4.530  10.969
14743SOL     OW46235   4.930  11.068  10.497
14743SOL    HW146236   4.846  11.022  10.489
14743SOL    HW246237   4.968  11.034  10.578
14744SOL     OW46238   5.248  10.411   3.474
14744SOL    HW146239   5.179  10.370   3.422
14744SOL    HW246240   5.318  10.346   3.476
14745SOL     OW46241   3.133   9.693   3.745
14745SOL    HW146242   3.229   9.696   3.743
14745SOL    HW246243   3.112   9.599   3.748
14746SOL     OW46244  10.742   1.651   9.084
14746SOL    HW146245  10.651   1.675   9.067
14746SOL    HW246246  10.737   1.565   9.126
14747SOL     OW46247   9.111   1.541   2.463
14747SOL    HW146248   9.119   1.454   2.423
14747SOL    HW246249   9.202   1.568   2.478
14748SOL     OW46250   2.136   9.457   8.802
14748SOL    HW146251   2.223   9.446   8.840
14748SOL    HW246252   2.092   9.520   8.858
14749SOL     OW46253   6.961  10.978   7.346
14749SOL    HW146254   7.045  10.934   7.332
14749SOL    HW246255   6.948  10.976   7.440
14750SOL     OW46256   6.779   3.118  10.343
14750SOL    HW146257   6.717   3.184  10.312
14750SOL    HW246258   6.727   3.038  10.350
14751SOL     OW46259   0.436   3.575   5.906
14751SOL    HW146260   0.353   3.572   5.954
14751SOL    HW246261   0.477   3.490   5.924
14752SOL     OW46262   9.209   0.545  10.399
14752SOL    HW146263   9.138   0.482  10.383
14752SOL    HW246264   9.281   0.514  10.343
14753SOL     OW46265   5.006   0.102   9.471
14753SOL    HW146266   5.031   0.077   9.560
14753SOL    HW246267   4.918   0.066   9.460
14754SOL     OW46268   2.868   8.711   1.843
14754SOL    HW146269   2.929   8.783   1.829
14754SOL    HW246270   2.885   8.682   1.932
14755SOL     OW46271   3.515   1.058   6.761
14755SOL    HW146272   3.557   1.039   6.845
14755SOL    HW246273   3.431   1.097   6.784
14756SOL     OW46274   7.141   1.249  10.416
14756SOL    HW146275   7.128   1.154  10.422
14756SOL    HW246276   7.054   1.286  10.433
14757SOL     OW46277   7.927   3.405   6.359
14757SOL    HW146278   7.928   3.469   6.288
14757SOL    HW246279   7.837   3.406   6.391
14758SOL     OW46280   3.738   3.085   9.879
14758SOL    HW146281   3.788   3.003   9.886
14758SOL    HW246282   3.729   3.116   9.969
14759SOL     OW46283   7.635   6.354   3.721
14759SOL    HW146284   7.729   6.345   3.736
14759SOL    HW246285   7.628   6.424   3.656
14760SOL     OW46286   7.120   3.573   6.257
14760SOL    HW146287   7.110   3.478   6.252
14760SOL    HW246288   7.144   3.590   6.348
14761SOL     OW46289  10.960   3.009   5.355
14761SOL    HW146290  10.910   3.081   5.393
14761SOL    HW246291  10.909   2.930   5.374
14762SOL     OW46292   1.257   4.903   3.975
14762SOL    HW146293   1.310   4.842   3.923
14762SOL    HW246294   1.241   4.856   4.057
14763SOL     OW46295  10.024   3.008   8.606
14763SOL    HW146296  10.086   3.006   8.532
14763SOL    HW246297   9.941   3.035   8.567
14764SOL     OW46298   0.763   7.726   4.189
14764SOL    HW146299   0.744   7.632   4.191
14764SOL    HW246300   0.858   7.731   4.181
14765SOL     OW46301   4.509   0.547   6.751
14765SOL    HW146302   4.539   0.550   6.660
14765SOL    HW246303   4.426   0.594   6.750
14766SOL     OW46304   9.283   4.560   4.337
14766SOL    HW146305   9.273   4.583   4.244
14766SOL    HW246306   9.378   4.560   4.351
14767SOL     OW46307   1.123  10.929   3.007
14767SOL    HW146308   1.039  10.974   3.008
14767SOL    HW246309   1.183  10.991   2.964
14768SOL     OW46310   3.339   6.640   7.498
14768SOL    HW146311   3.320   6.591   7.417
14768SOL    HW246312   3.253   6.665   7.532
14769SOL     OW46313   6.839   1.696   7.075
14769SOL    HW146314   6.799   1.612   7.052
14769SOL    HW246315   6.867   1.685   7.166
14770SOL     OW46316  10.999   0.381   1.645
14770SOL    HW146317  11.033   0.470   1.655
14770SOL    HW246318  11.056   0.341   1.579
14771SOL     OW46319   2.026   0.794  10.928
14771SOL    HW146320   2.112   0.836  10.926
14771SOL    HW246321   2.042   0.707  10.891
14772SOL     OW46322   9.586   3.737   1.681
14772SOL    HW146323   9.670   3.691   1.675
14772SOL    HW246324   9.521   3.668   1.672
14773SOL     OW46325   5.634   1.026   1.074
14773SOL    HW146326   5.602   0.952   1.125
14773SOL    HW246327   5.669   0.986   0.994
14774SOL     OW46328   2.015  10.670  10.735
14774SOL    HW146329   2.015  10.655  10.829
14774SOL    HW246330   2.034  10.584  10.697
14775SOL     OW46331   4.869   2.089   9.857
14775SOL    HW146332   4.837   2.178   9.870
14775SOL    HW246333   4.961   2.092   9.884
14776SOL     OW46334   4.313  11.020   9.824
14776SOL    HW146335   4.348  11.109   9.828
14776SOL    HW246336   4.364  10.978   9.755
14777SOL     OW46337   1.154   2.589   9.751
14777SOL    HW146338   1.110   2.536   9.818
14777SOL    HW246339   1.209   2.526   9.703
14778SOL     OW46340   1.562   7.789   5.802
14778SOL    HW146341   1.576   7.694   5.811
14778SOL    HW246342   1.595   7.810   5.714
14779SOL     OW46343   0.910   7.030   0.254
14779SOL    HW146344   0.927   7.105   0.197
14779SOL    HW246345   0.818   7.038   0.278
14780SOL     OW46346   8.348   0.290  10.264
14780SOL    HW146347   8.425   0.236  10.243
14780SOL    HW246348   8.281   0.259  10.202
14781SOL     OW46349   5.855   8.852   8.575
14781SOL    HW146350   5.855   8.801   8.656
14781SOL    HW246351   5.763   8.865   8.554
14782SOL     OW46352   3.929   8.705   1.056
14782SOL    HW146353   3.949   8.671   1.143
14782SOL    HW246354   3.989   8.778   1.044
14783SOL     OW46355   4.770   8.578   5.472
14783SOL    HW146356   4.706   8.543   5.410
14783SOL    HW246357   4.766   8.673   5.460
14784SOL     OW46358   3.820   5.193   0.488
14784SOL    HW146359   3.727   5.171   0.497
14784SOL    HW246360   3.859   5.117   0.444
14785SOL     OW46361   5.234  10.417   0.959
14785SOL    HW146362   5.197  10.426   0.871
14785SOL    HW246363   5.325  10.447   0.950
14786SOL     OW46364   8.991  10.389   0.489
14786SOL    HW146365   8.934  10.336   0.433
14786SOL    HW246366   9.046  10.437   0.427
14787SOL     OW46367   3.513   7.281   7.779
14787SOL    HW146368   3.543   7.195   7.808
14787SOL    HW246369   3.554   7.293   7.693
14788SOL     OW46370   6.298   4.392  10.774
14788SOL    HW146371   6.371   4.333  10.756
14788SOL    HW246372   6.324   4.439  10.853
14789SOL     OW46373   8.204   4.123   9.507
14789SOL    HW146374   8.161   4.039   9.522
14789SOL    HW246375   8.183   4.175   9.584
14790SOL     OW46376   6.510  10.157   9.873
14790SOL    HW146377   6.519  10.250   9.891
14790SOL    HW246378   6.599  10.122   9.881
14791SOL     OW46379   8.034  11.049   4.039
14791SOL    HW146380   8.063  11.031   3.949
14791SOL    HW246381   7.986  11.132   4.032
14792SOL     OW46382   1.676   7.348   3.885
14792SOL    HW146383   1.585   7.321   3.899
14792SOL    HW246384   1.695   7.323   3.794
14793SOL     OW46385   5.949   7.305   6.124
14793SOL    HW146386   5.973   7.223   6.081
14793SOL    HW246387   5.958   7.287   6.217
14794SOL     OW46388   5.598   9.511   2.240
14794SOL    HW146389   5.595   9.579   2.307
14794SOL    HW246390   5.652   9.548   2.170
14795SOL     OW46391   0.931   7.431   3.913
14795SOL    HW146392   0.957   7.518   3.884
14795SOL    HW246393   1.012   7.390   3.943
14796SOL     OW46394   6.689   3.468   9.493
14796SOL    HW146395   6.673   3.516   9.411
14796SOL    HW246396   6.638   3.387   9.484
14797SOL     OW46397   8.233   1.032   3.337
14797SOL    HW146398   8.254   1.017   3.244
14797SOL    HW246399   8.194   0.949   3.366
14798SOL     OW46400  10.633   5.983   4.785
14798SOL    HW146401  10.539   5.975   4.802
14798SOL    HW246402  10.664   6.047   4.848
14799SOL     OW46403   9.785   9.475   3.973
14799SOL    HW146404   9.796   9.551   3.917
14799SOL    HW246405   9.755   9.406   3.913
14800SOL     OW46406   5.143   9.438   2.052
14800SOL    HW146407   5.134   9.529   2.078
14800SOL    HW246408   5.203   9.400   2.116
14801SOL     OW46409   4.708   5.790   8.437
14801SOL    HW146410   4.710   5.708   8.387
14801SOL    HW246411   4.680   5.764   8.524
14802SOL     OW46412   4.002  10.765   1.370
14802SOL    HW146413   4.089  10.798   1.349
14802SOL    HW246414   3.999  10.763   1.465
14803SOL     OW46415   5.291   9.147   8.920
14803SOL    HW146416   5.240   9.224   8.896
14803SOL    HW246417   5.226   9.077   8.932
14804SOL     OW46418   1.696   7.097   1.332
14804SOL    HW146419   1.617   7.150   1.343
14804SOL    HW246420   1.768   7.160   1.328
14805SOL     OW46421   9.039   9.314   9.111
14805SOL    HW146422   9.105   9.269   9.058
14805SOL    HW246423   9.089   9.368   9.172
14806SOL     OW46424   5.224   6.697  10.885
14806SOL    HW146425   5.226   6.601  10.878
14806SOL    HW246426   5.278   6.717  10.961
14807SOL     OW46427   6.686   3.594   2.166
14807SOL    HW146428   6.755   3.649   2.129
14807SOL    HW246429   6.665   3.532   2.096
14808SOL     OW46430   8.712   4.094   0.156
14808SOL    HW146431   8.725   4.084   0.062
14808SOL    HW246432   8.758   4.175   0.179
14809SOL     OW46433   5.966   4.063   7.759
14809SOL    HW146434   6.046   4.033   7.803
14809SOL    HW246435   5.985   4.153   7.734
14810SOL     OW46436   8.727   0.556   9.741
14810SOL    HW146437   8.645   0.595   9.772
14810SOL    HW246438   8.795   0.618   9.768
14811SOL     OW46439  10.855   2.829   6.141
14811SOL    HW146440  10.816   2.848   6.226
14811SOL    HW246441  10.782   2.834   6.079
14812SOL     OW46442  10.296   4.996   9.083
14812SOL    HW146443  10.285   4.963   9.172
14812SOL    HW246444  10.334   4.922   9.035
14813SOL     OW46445   1.351   9.568   1.211
14813SOL    HW146446   1.433   9.612   1.233
14813SOL    HW246447   1.370   9.521   1.129
14814SOL     OW46448   4.709   5.177   3.290
14814SOL    HW146449   4.666   5.254   3.254
14814SOL    HW246450   4.639   5.127   3.332
14815SOL     OW46451   2.284  10.029   0.806
14815SOL    HW146452   2.283  10.121   0.782
14815SOL    HW246453   2.204  10.016   0.857
14816SOL     OW46454   0.852   9.748  10.262
14816SOL    HW146455   0.933   9.753  10.313
14816SOL    HW246456   0.852   9.828  10.210
14817SOL     OW46457   8.101   7.713   2.105
14817SOL    HW146458   8.105   7.785   2.042
14817SOL    HW246459   8.025   7.733   2.160
14818SOL     OW46460   2.724  10.287   7.628
14818SOL    HW146461   2.732  10.196   7.657
14818SOL    HW246462   2.679  10.331   7.700
14819SOL     OW46463  10.340   1.845   9.999
14819SOL    HW146464  10.343   1.820  10.091
14819SOL    HW246465  10.264   1.798   9.964
14820SOL     OW46466   9.094   6.921   5.466
14820SOL    HW146467   9.125   6.984   5.401
14820SOL    HW246468   9.059   6.975   5.537
14821SOL     OW46469   3.220   9.692   0.087
14821SOL    HW146470   3.280   9.766   0.086
14821SOL    HW246471   3.205   9.675   0.180
14822SOL     OW46472   1.077   8.350   9.970
14822SOL    HW146473   1.060   8.338  10.063
14822SOL    HW246474   1.136   8.425   9.966
14823SOL     OW46475   1.542   2.910   5.462
14823SOL    HW146476   1.540   3.005   5.457
14823SOL    HW246477   1.495   2.881   5.383
14824SOL     OW46478   7.294  10.998   7.369
14824SOL    HW146479   7.254  10.921   7.410
14824SOL    HW246480   7.388  10.981   7.374
14825SOL     OW46481  10.281   7.044   9.429
14825SOL    HW146482  10.264   7.027   9.521
14825SOL    HW246483  10.222   7.116   9.406
14826SOL     OW46484   4.617   9.518   8.699
14826SOL    HW146485   4.691   9.577   8.707
14826SOL    HW246486   4.656   9.430   8.705
14827SOL     OW46487   6.057   5.196   9.570
14827SOL    HW146488   6.151   5.197   9.586
14827SOL    HW246489   6.029   5.108   9.596
14828SOL     OW46490   2.830   1.658   3.612
14828SOL    HW146491   2.920   1.675   3.584
14828SOL    HW246492   2.831   1.671   3.706
14829SOL     OW46493   7.493   0.054  10.424
14829SOL    HW146494   7.477   0.099  10.506
14829SOL    HW246495   7.562   0.105  10.381
14830SOL     OW46496   7.908   0.317   1.680
14830SOL    HW146497   7.974   0.347   1.617
14830SOL    HW246498   7.913   0.221   1.675
14831SOL     OW46499   9.917   4.314   8.557
14831SOL    HW146500   9.936   4.398   8.515
14831SOL    HW246501   9.856   4.271   8.497
14832SOL     OW46502   4.543   3.028   0.976
14832SOL    HW146503   4.560   3.092   0.907
14832SOL    HW246504   4.515   3.080   1.051
14833SOL     OW46505   7.378   9.682   2.475
14833SOL    HW146506   7.352   9.645   2.390
14833SOL    HW246507   7.323   9.759   2.485
14834SOL     OW46508   8.265   0.080   0.901
14834SOL    HW146509   8.324   0.010   0.930
14834SOL    HW246510   8.322   0.155   0.887
14835SOL     OW46511   4.963   5.939   5.036
14835SOL    HW146512   4.904   5.890   4.979
14835SOL    HW246513   4.952   5.899   5.122
14836SOL     OW46514   6.821   9.181   3.651
14836SOL    HW146515   6.769   9.257   3.675
14836SOL    HW246516   6.911   9.204   3.676
14837SOL     OW46517   4.810   3.097   2.816
14837SOL    HW146518   4.777   3.172   2.767
14837SOL    HW246519   4.743   3.029   2.805
14838SOL     OW46520   7.214  10.751   8.443
14838SOL    HW146521   7.306  10.736   8.423
14838SOL    HW246522   7.179  10.793   8.364
14839SOL     OW46523   4.884   4.821   4.361
14839SOL    HW146524   4.902   4.908   4.395
14839SOL    HW246525   4.793   4.804   4.386
14840SOL     OW46526   6.716  10.286   4.526
14840SOL    HW146527   6.621  10.286   4.540
14840SOL    HW246528   6.746  10.205   4.568
14841SOL     OW46529   6.243   8.557   1.058
14841SOL    HW146530   6.152   8.534   1.040
14841SOL    HW246531   6.293   8.486   1.016
14842SOL     OW46532   4.101   2.738   4.691
14842SOL    HW146533   4.074   2.679   4.761
14842SOL    HW246534   4.027   2.797   4.679
14843SOL     OW46535  10.366   8.583   5.761
14843SOL    HW146536  10.445   8.614   5.716
14843SOL    HW246537  10.371   8.487   5.754
14844SOL     OW46538   4.309   9.216   2.594
14844SOL    HW146539   4.329   9.140   2.649
14844SOL    HW246540   4.365   9.205   2.517
14845SOL     OW46541   5.037   5.222  10.366
14845SOL    HW146542   5.022   5.129  10.346
14845SOL    HW246543   5.132   5.232  10.362
14846SOL     OW46544   0.529   1.492   8.993
14846SOL    HW146545   0.580   1.491   9.074
14846SOL    HW246546   0.468   1.564   9.004
14847SOL     OW46547   5.845   3.723   0.474
14847SOL    HW146548   5.901   3.669   0.530
14847SOL    HW246549   5.778   3.758   0.533
14848SOL     OW46550   3.466   3.757  10.287
14848SOL    HW146551   3.452   3.840  10.331
14848SOL    HW246552   3.378   3.725  10.267
14849SOL     OW46553   4.583   8.607   2.263
14849SOL    HW146554   4.643   8.535   2.284
14849SOL    HW246555   4.548   8.584   2.177
14850SOL     OW46556   4.537   5.500   1.953
14850SOL    HW146557   4.460   5.470   1.905
14850SOL    HW246558   4.502   5.545   2.029
14851SOL     OW46559   4.570   3.307   9.210
14851SOL    HW146560   4.544   3.218   9.184
14851SOL    HW246561   4.494   3.342   9.255
14852SOL     OW46562   1.206   0.849   9.650
14852SOL    HW146563   1.120   0.829   9.685
14852SOL    HW246564   1.261   0.862   9.727
14853SOL     OW46565   3.960   1.926   4.861
14853SOL    HW146566   3.883   1.936   4.805
14853SOL    HW246567   4.010   1.855   4.820
14854SOL     OW46568   0.104   0.383   2.551
14854SOL    HW146569   0.187   0.428   2.563
14854SOL    HW246570   0.127   0.301   2.506
14855SOL     OW46571  10.101   5.421   3.397
14855SOL    HW146572  10.152   5.501   3.393
14855SOL    HW246573  10.165   5.352   3.415
14856SOL     OW46574   4.867  10.348   1.042
14856SOL    HW146575   4.883  10.305   1.126
14856SOL    HW246576   4.798  10.295   1.001
14857SOL     OW46577   5.319   4.759   1.853
14857SOL    HW146578   5.235   4.754   1.808
14857SOL    HW246579   5.370   4.821   1.801
14858SOL     OW46580   8.480   9.626   0.831
14858SOL    HW146581   8.401   9.572   0.839
14858SOL    HW246582   8.505   9.646   0.921
14859SOL     OW46583   6.954   2.459   2.743
14859SOL    HW146584   6.910   2.524   2.689
14859SOL    HW246585   7.019   2.419   2.684
14860SOL     OW46586   9.165  10.649   8.693
14860SOL    HW146587   9.129  10.687   8.613
14860SOL    HW246588   9.254  10.623   8.668
14861SOL     OW46589   8.651   3.135   2.269
14861SOL    HW146590   8.591   3.063   2.290
14861SOL    HW246591   8.631   3.203   2.333
14862SOL     OW46592   3.326   0.964   4.400
14862SOL    HW146593   3.393   1.032   4.406
14862SOL    HW246594   3.246   1.007   4.429
14863SOL     OW46595   2.513   8.615   2.923
14863SOL    HW146596   2.449   8.613   2.994
14863SOL    HW246597   2.464   8.590   2.845
14864SOL     OW46598   0.737   9.772   3.951
14864SOL    HW146599   0.804   9.706   3.932
14864SOL    HW246600   0.764   9.849   3.901
14865SOL     OW46601   5.815   5.626   4.431
14865SOL    HW146602   5.748   5.693   4.445
14865SOL    HW246603   5.885   5.672   4.385
14866SOL     OW46604   0.705   0.340   3.180
14866SOL    HW146605   0.750   0.298   3.253
14866SOL    HW246606   0.662   0.416   3.218
14867SOL     OW46607   4.351   9.003   8.424
14867SOL    HW146608   4.373   9.062   8.495
14867SOL    HW246609   4.433   8.993   8.374
14868SOL     OW46610   7.457   7.260   8.434
14868SOL    HW146611   7.538   7.253   8.383
14868SOL    HW246612   7.404   7.323   8.386
14869SOL     OW46613   3.208   2.994   0.716
14869SOL    HW146614   3.303   3.001   0.704
14869SOL    HW246615   3.173   2.995   0.627
14870SOL     OW46616   7.056   8.698  10.471
14870SOL    HW146617   7.065   8.774  10.528
14870SOL    HW246618   7.138   8.650  10.482
14871SOL     OW46619   7.951   8.521   4.200
14871SOL    HW146620   7.928   8.569   4.279
14871SOL    HW246621   7.941   8.584   4.129
14872SOL     OW46622   3.928   0.763   1.364
14872SOL    HW146623   3.905   0.772   1.456
14872SOL    HW246624   3.898   0.675   1.340
14873SOL     OW46625   6.316   9.080   1.568
14873SOL    HW146626   6.265   9.133   1.629
14873SOL    HW246627   6.401   9.123   1.564
14874SOL     OW46628   3.927   9.190   7.546
14874SOL    HW146629   3.888   9.236   7.472
14874SOL    HW246630   3.964   9.259   7.601
14875SOL     OW46631  10.327   0.254   2.776
14875SOL    HW146632  10.265   0.326   2.771
14875SOL    HW246633  10.272   0.175   2.778
14876SOL     OW46634   7.898   1.491  10.354
14876SOL    HW146635   7.853   1.574  10.342
14876SOL    HW246636   7.850   1.430  10.298
14877SOL     OW46637   2.187   3.950   8.695
14877SOL    HW146638   2.236   4.032   8.693
14877SOL    HW246639   2.179   3.928   8.788
14878SOL     OW46640   2.111   6.656   8.103
14878SOL    HW146641   2.189   6.618   8.143
14878SOL    HW246642   2.086   6.592   8.036
14879SOL     OW46643   0.989   2.303   4.859
14879SOL    HW146644   1.015   2.211   4.864
14879SOL    HW246645   1.000   2.336   4.948
14880SOL     OW46646   9.124   3.674  10.508
14880SOL    HW146647   9.186   3.683  10.435
14880SOL    HW246648   9.086   3.587  10.496
14881SOL     OW46649   4.310   4.040  10.745
14881SOL    HW146650   4.370   4.105  10.780
14881SOL    HW246651   4.308   4.057  10.651
14882SOL     OW46652   7.126   5.147  11.081
14882SOL    HW146653   7.156   5.233  11.108
14882SOL    HW246654   7.137   5.092  11.159
14883SOL     OW46655   8.966   2.076   5.038
14883SOL    HW146656   9.025   2.081   4.963
14883SOL    HW246657   9.023   2.057   5.112
14884SOL     OW46658   4.914   3.324   4.178
14884SOL    HW146659   4.823   3.294   4.178
14884SOL    HW246660   4.910   3.416   4.204
14885SOL     OW46661   3.025   0.201   3.431
14885SOL    HW146662   3.090   0.254   3.477
14885SOL    HW246663   2.974   0.159   3.500
14886SOL     OW46664   4.640   3.925   9.750
14886SOL    HW146665   4.669   3.839   9.780
14886SOL    HW246666   4.698   3.987   9.794
14887SOL     OW46667   9.921   7.078   2.489
14887SOL    HW146668   9.916   7.013   2.559
14887SOL    HW246669   9.996   7.133   2.512
14888SOL     OW46670   9.658   9.007   0.583
14888SOL    HW146671   9.737   8.953   0.582
14888SOL    HW246672   9.599   8.961   0.642
14889SOL     OW46673   5.242   3.103  10.556
14889SOL    HW146674   5.188   3.050  10.497
14889SOL    HW246675   5.327   3.058  10.557
14890SOL     OW46676   6.043   9.090   8.184
14890SOL    HW146677   6.065   9.167   8.235
14890SOL    HW246678   6.054   9.017   8.245
14891SOL     OW46679   6.661   5.740  10.972
14891SOL    HW146680   6.587   5.798  10.959
14891SOL    HW246681   6.738   5.794  10.955
14892SOL     OW46682   4.101   0.387   8.886
14892SOL    HW146683   4.182   0.357   8.928
14892SOL    HW246684   4.074   0.313   8.830
14893SOL     OW46685   3.279   8.059   9.024
14893SOL    HW146686   3.359   8.034   8.978
14893SOL    HW246687   3.306   8.130   9.081
14894SOL     OW46688   4.110   0.845   2.972
14894SOL    HW146689   4.161   0.823   2.893
14894SOL    HW246690   4.173   0.836   3.044
14895SOL     OW46691   4.868   0.428   7.611
14895SOL    HW146692   4.784   0.438   7.566
14895SOL    HW246693   4.933   0.451   7.545
14896SOL     OW46694   8.144  10.960   3.804
14896SOL    HW146695   8.219  10.954   3.863
14896SOL    HW246696   8.174  10.920   3.722
14897SOL     OW46697   1.354  10.459   3.614
14897SOL    HW146698   1.288  10.491   3.552
14897SOL    HW246699   1.381  10.537   3.663
14898SOL     OW46700   2.626   5.858   2.719
14898SOL    HW146701   2.627   5.879   2.625
14898SOL    HW246702   2.636   5.763   2.722
14899SOL     OW46703   2.179   0.422   3.725
14899SOL    HW146704   2.165   0.392   3.815
14899SOL    HW246705   2.229   0.351   3.684
14900SOL     OW46706   8.040   7.419   9.412
14900SOL    HW146707   7.967   7.450   9.359
14900SOL    HW246708   8.003   7.350   9.467
14901SOL     OW46709   3.931   3.577   9.571
14901SOL    HW146710   3.908   3.489   9.601
14901SOL    HW246711   4.024   3.585   9.592
14902SOL     OW46712  10.711   5.971   2.388
14902SOL    HW146713  10.683   5.985   2.297
14902SOL    HW246714  10.667   6.039   2.438
14903SOL     OW46715   5.735   5.424  10.692
14903SOL    HW146716   5.707   5.389  10.776
14903SOL    HW246717   5.824   5.455  10.707
14904SOL     OW46718   3.445   1.257   7.000
14904SOL    HW146719   3.426   1.305   7.080
14904SOL    HW246720   3.366   1.267   6.946
14905SOL     OW46721   4.740   2.032  10.554
14905SOL    HW146722   4.704   1.954  10.596
14905SOL    HW246723   4.797   2.071  10.620
14906SOL     OW46724   0.699   2.734   7.666
14906SOL    HW146725   0.661   2.691   7.589
14906SOL    HW246726   0.639   2.714   7.737
14907SOL     OW46727   6.323   2.232   2.076
14907SOL    HW146728   6.342   2.225   1.982
14907SOL    HW246729   6.269   2.310   2.084
14908SOL     OW46730   0.411   9.110   9.007
14908SOL    HW146731   0.492   9.058   8.999
14908SOL    HW246732   0.390   9.135   8.917
14909SOL     OW46733   7.834   9.732   5.134
14909SOL    HW146734   7.791   9.753   5.051
14909SOL    HW246735   7.903   9.670   5.110
14910SOL     OW46736   4.162   4.177   3.749
14910SOL    HW146737   4.121   4.209   3.829
14910SOL    HW246738   4.180   4.084   3.766
14911SOL     OW46739   9.944   0.008   6.606
14911SOL    HW146740   9.959  -0.003   6.512
14911SOL    HW246741   9.853  -0.017   6.618
14912SOL     OW46742   9.404  10.094   1.739
14912SOL    HW146743   9.333  10.036   1.767
14912SOL    HW246744   9.436  10.134   1.819
14913SOL     OW46745   7.743   6.378  10.126
14913SOL    HW146746   7.661   6.410  10.162
14913SOL    HW246747   7.796   6.354  10.202
14914SOL     OW46748   5.619  11.023   8.424
14914SOL    HW146749   5.592  11.056   8.338
14914SOL    HW246750   5.550  10.962   8.449
14915SOL     OW46751   2.161   8.803   0.416
14915SOL    HW146752   2.119   8.756   0.488
14915SOL    HW246753   2.226   8.741   0.382
14916SOL     OW46754   9.854   9.249   8.568
14916SOL    HW146755   9.879   9.301   8.491
14916SOL    HW246756   9.760   9.232   8.556
14917SOL     OW46757   2.626   5.424   8.579
14917SOL    HW146758   2.647   5.351   8.637
14917SOL    HW246759   2.709   5.471   8.569
14918SOL     OW46760   4.539   5.801   1.238
14918SOL    HW146761   4.568   5.800   1.329
14918SOL    HW246762   4.500   5.714   1.224
14919SOL     OW46763   1.668   8.917   8.707
14919SOL    HW146764   1.592   8.956   8.663
14919SOL    HW246765   1.671   8.958   8.793
14920SOL     OW46766   4.738   3.120   4.610
14920SOL    HW146767   4.828   3.151   4.606
14920SOL    HW246768   4.733   3.055   4.540
14921SOL     OW46769   4.514   4.376   4.452
14921SOL    HW146770   4.570   4.390   4.528
14921SOL    HW246771   4.519   4.458   4.403
14922SOL     OW46772   6.168   9.282  10.467
14922SOL    HW146773   6.242   9.293  10.407
14922SOL    HW246774   6.170   9.359  10.522
14923SOL     OW46775   2.027  10.823   1.846
14923SOL    HW146776   2.086  10.749   1.833
14923SOL    HW246777   2.082  10.900   1.833
14924SOL     OW46778   0.020  10.252   8.149
14924SOL    HW146779   0.046  10.188   8.082
14924SOL    HW246780  -0.029  10.200   8.213
14925SOL     OW46781   0.892   9.091   2.204
14925SOL    HW146782   0.857   9.027   2.266
14925SOL    HW246783   0.877   9.051   2.118
14926SOL     OW46784  10.801   7.192   7.875
14926SOL    HW146785  10.771   7.272   7.918
14926SOL    HW246786  10.722   7.154   7.837
14927SOL     OW46787   4.943   1.151   3.784
14927SOL    HW146788   4.942   1.071   3.836
14927SOL    HW246789   4.909   1.219   3.842
14928SOL     OW46790   4.941   0.176   0.666
14928SOL    HW146791   4.976   0.181   0.755
14928SOL    HW246792   4.932   0.267   0.637
14929SOL     OW46793   0.784   1.614   3.157
14929SOL    HW146794   0.791   1.518   3.156
14929SOL    HW246795   0.817   1.640   3.243
14930SOL     OW46796   7.999  10.810   0.367
14930SOL    HW146797   7.904  10.798   0.372
14930SOL    HW246798   8.035  10.721   0.361
14931SOL     OW46799   9.571  11.078   2.071
14931SOL    HW146800   9.502  11.116   2.125
14931SOL    HW246801   9.571  11.132   1.991
14932SOL     OW46802   3.443   4.725   4.339
14932SOL    HW146803   3.412   4.717   4.248
14932SOL    HW246804   3.509   4.794   4.336
14933SOL     OW46805   2.382   8.993   1.026
14933SOL    HW146806   2.341   9.074   1.054
14933SOL    HW246807   2.438   9.018   0.952
14934SOL     OW46808   9.081  10.047   7.708
14934SOL    HW146809   9.009  10.079   7.762
14934SOL    HW246810   9.044   9.972   7.660
14935SOL     OW46811  10.842   2.735   2.897
14935SOL    HW146812  10.803   2.790   2.829
14935SOL    HW246813  10.804   2.767   2.978
14936SOL     OW46814   5.228   2.356   1.128
14936SOL    HW146815   5.160   2.298   1.162
14936SOL    HW246816   5.242   2.420   1.197
14937SOL     OW46817   5.074   8.018   2.807
14937SOL    HW146818   5.152   7.983   2.763
14937SOL    HW246819   5.109   8.067   2.881
14938SOL     OW46820  10.880   1.016   6.317
14938SOL    HW146821  10.818   1.040   6.248
14938SOL    HW246822  10.934   0.947   6.277
14939SOL     OW46823   9.915  10.397   7.482
14939SOL    HW146824   9.841  10.457   7.473
14939SOL    HW246825   9.877  10.317   7.518
14940SOL     OW46826   5.247   1.973   0.737
14940SOL    HW146827   5.296   1.905   0.784
14940SOL    HW246828   5.281   1.968   0.647
14941SOL     OW46829  10.035   6.833   1.748
14941SOL    HW146830   9.990   6.883   1.680
14941SOL    HW246831  10.104   6.786   1.701
14942SOL     OW46832   4.709   9.897   8.010
14942SOL    HW146833   4.736   9.984   7.980
14942SOL    HW246834   4.753   9.836   7.950
14943SOL     OW46835   2.856   7.415   6.352
14943SOL    HW146836   2.772   7.439   6.312
14943SOL    HW246837   2.897   7.357   6.287
14944SOL     OW46838  11.049   1.556   8.740
14944SOL    HW146839  11.085   1.629   8.690
14944SOL    HW246840  11.063   1.580   8.831
14945SOL     OW46841   7.659   5.672  10.594
14945SOL    HW146842   7.728   5.657  10.529
14945SOL    HW246843   7.622   5.585  10.610
14946SOL     OW46844   5.194   8.254   9.528
14946SOL    HW146845   5.254   8.288   9.595
14946SOL    HW246846   5.247   8.252   9.448
14947SOL     OW46847   2.273   7.088   5.433
14947SOL    HW146848   2.197   7.070   5.378
14947SOL    HW246849   2.335   7.018   5.410
14948SOL     OW46850   1.347   0.150   4.124
14948SOL    HW146851   1.353   0.229   4.070
14948SOL    HW246852   1.434   0.142   4.164
14949SOL     OW46853   2.342   1.175   0.948
14949SOL    HW146854   2.301   1.182   1.034
14949SOL    HW246855   2.271   1.148   0.889
14950SOL     OW46856   8.862   1.657   6.635
14950SOL    HW146857   8.922   1.597   6.680
14950SOL    HW246858   8.783   1.658   6.689
14951SOL     OW46859   7.760   3.482   0.388
14951SOL    HW146860   7.785   3.417   0.454
14951SOL    HW246861   7.687   3.441   0.341
14952SOL     OW46862   7.624   3.849   1.568
14952SOL    HW146863   7.576   3.931   1.566
14952SOL    HW246864   7.569   3.787   1.519
14953SOL     OW46865   5.692   6.844   0.621
14953SOL    HW146866   5.788   6.850   0.615
14953SOL    HW246867   5.671   6.876   0.708
14954SOL     OW46868   1.575   8.542  10.757
14954SOL    HW146869   1.665   8.531  10.787
14954SOL    HW246870   1.555   8.634  10.773
14955SOL     OW46871   3.645   0.164  10.494
14955SOL    HW146872   3.700   0.233  10.458
14955SOL    HW246873   3.586   0.141  10.422
14956SOL     OW46874   4.182  10.030   0.045
14956SOL    HW146875   4.245  10.064  -0.018
14956SOL    HW246876   4.175   9.937   0.024
14957SOL     OW46877   5.823   5.806  10.251
14957SOL    HW146878   5.827   5.716  10.218
14957SOL    HW246879   5.769   5.800  10.329
14958SOL     OW46880   5.945  10.171  10.769
14958SOL    HW146881   6.038  10.188  10.752
14958SOL    HW246882   5.945  10.105  10.838
14959SOL     OW46883   0.865   6.038   3.860
14959SOL    HW146884   0.863   5.946   3.832
14959SOL    HW246885   0.958   6.057   3.870
14960SOL     OW46886   0.157   1.229   3.363
14960SOL    HW146887   0.104   1.294   3.410
14960SOL    HW246888   0.092   1.170   3.323
14961SOL     OW46889  11.047   8.371   9.077
14961SOL    HW146890  11.095   8.354   9.158
14961SOL    HW246891  11.033   8.465   9.077
14962SOL     OW46892   6.213  10.582   9.129
14962SOL    HW146893   6.130  10.619   9.099
14962SOL    HW246894   6.272  10.592   9.054
14963SOL     OW46895   7.510   8.344   2.570
14963SOL    HW146896   7.431   8.364   2.619
14963SOL    HW246897   7.506   8.400   2.493
14964SOL     OW46898  10.695   6.569   1.652
14964SOL    HW146899  10.758   6.620   1.601
14964SOL    HW246900  10.674   6.625   1.727
14965SOL     OW46901   4.630   3.803  10.541
14965SOL    HW146902   4.632   3.833  10.631
14965SOL    HW246903   4.543   3.826  10.509
14966SOL     OW46904   4.617   2.056   3.653
14966SOL    HW146905   4.586   2.065   3.743
14966SOL    HW246906   4.581   2.132   3.607
14967SOL     OW46907   6.753   7.084   5.261
14967SOL    HW146908   6.761   6.996   5.224
14967SOL    HW246909   6.803   7.139   5.200
14968SOL     OW46910   0.117   5.503   3.639
14968SOL    HW146911   0.040   5.480   3.587
14968SOL    HW246912   0.190   5.462   3.592
14969SOL     OW46913   6.308   1.677   8.906
14969SOL    HW146914   6.344   1.673   8.817
14969SOL    HW246915   6.296   1.770   8.923
14970SOL     OW46916   1.314   5.036   1.332
14970SOL    HW146917   1.365   4.989   1.398
14970SOL    HW246918   1.223   5.026   1.360
14971SOL     OW46919   7.084   5.882   6.706
14971SOL    HW146920   7.106   5.855   6.617
14971SOL    HW246921   6.989   5.869   6.712
14972SOL     OW46922   7.742  10.186   7.743
14972SOL    HW146923   7.711  10.234   7.819
14972SOL    HW246924   7.665  10.139   7.711
14973SOL     OW46925   3.630   1.048   9.888
14973SOL    HW146926   3.678   1.120   9.848
14973SOL    HW246927   3.576   1.013   9.817
14974SOL     OW46928   6.704   1.675   0.227
14974SOL    HW146929   6.706   1.602   0.165
14974SOL    HW246930   6.704   1.753   0.172
14975SOL     OW46931   6.197   9.578  10.616
14975SOL    HW146932   6.194   9.623  10.700
14975SOL    HW246933   6.288   9.551  10.606
14976SOL     OW46934  10.081   3.367   3.624
14976SOL    HW146935  10.149   3.422   3.585
14976SOL    HW246936  10.065   3.298   3.558
14977SOL     OW46937   6.847   6.052   1.026
14977SOL    HW146938   6.884   6.135   1.057
14977SOL    HW246939   6.916   6.014   0.971
14978SOL     OW46940   0.971   2.192   4.469
14978SOL    HW146941   0.917   2.251   4.522
14978SOL    HW246942   1.057   2.234   4.466
14979SOL     OW46943   9.566  10.740   9.717
14979SOL    HW146944   9.539  10.782   9.635
14979SOL    HW246945   9.645  10.691   9.693
14980SOL     OW46946   6.072   2.378  10.905
14980SOL    HW146947   6.072   2.305  10.843
14980SOL    HW246948   6.070   2.336  10.991
14981SOL     OW46949   3.572   4.081  10.766
14981SOL    HW146950   3.655   4.037  10.785
14981SOL    HW246951   3.576   4.101  10.672
14982SOL     OW46952   5.545   2.614   7.662
14982SOL    HW146953   5.593   2.593   7.742
14982SOL    HW246954   5.595   2.685   7.622
14983SOL     OW46955   3.322   4.998  10.597
14983SOL    HW146956   3.237   4.997  10.641
14983SOL    HW246957   3.366   4.919  10.628
14984SOL     OW46958   3.045   8.356   4.756
14984SOL    HW146959   3.083   8.387   4.838
14984SOL    HW246960   2.966   8.309   4.782
14985SOL     OW46961   6.569   4.867   9.383
14985SOL    HW146962   6.502   4.801   9.401
14985SOL    HW246963   6.644   4.841   9.437
14986SOL     OW46964   1.908   9.791   3.408
14986SOL    HW146965   1.901   9.741   3.489
14986SOL    HW246966   2.002   9.809   3.399
14987SOL     OW46967   6.730   1.910   7.523
14987SOL    HW146968   6.823   1.888   7.517
14987SOL    HW246969   6.706   1.887   7.612
14988SOL     OW46970   8.230   2.006   1.464
14988SOL    HW146971   8.277   1.923   1.455
14988SOL    HW246972   8.174   1.994   1.540
14989SOL     OW46973   6.495   9.149   2.493
14989SOL    HW146974   6.478   9.058   2.466
14989SOL    HW246975   6.527   9.192   2.413
14990SOL     OW46976   2.617   3.018   6.273
14990SOL    HW146977   2.691   3.049   6.325
14990SOL    HW246978   2.542   3.066   6.307
14991SOL     OW46979   8.087  10.186  11.074
14991SOL    HW146980   8.141  10.161  10.998
14991SOL    HW246981   8.013  10.233  11.036
14992SOL     OW46982  10.959   1.605   4.573
14992SOL    HW146983  10.962   1.549   4.495
14992SOL    HW246984  10.994   1.550   4.643
14993SOL     OW46985  10.446  11.010   3.327
14993SOL    HW146986  10.487  10.979   3.246
14993SOL    HW246987  10.411  11.096   3.304
14994SOL     OW46988   4.187   8.639   3.532
14994SOL    HW146989   4.182   8.555   3.579
14994SOL    HW246990   4.143   8.622   3.448
14995SOL     OW46991   8.369   3.006   1.151
14995SOL    HW146992   8.282   3.036   1.176
14995SOL    HW246993   8.423   3.084   1.155
14996SOL     OW46994   6.847   0.860  10.936
14996SOL    HW146995   6.811   0.948  10.939
14996SOL    HW246996   6.934   0.871  10.898
14997SOL     OW46997   4.606  10.227   9.009
14997SOL    HW146998   4.612  10.322   9.007
14997SOL    HW246999   4.575  10.207   9.097
14998SOL     OW47000   0.087   7.233   2.446
14998SOL    HW147001   0.133   7.190   2.373
14998SOL    HW247002   0.154   7.248   2.512
14999SOL     OW47003   0.211   9.512   4.335
14999SOL    HW147004   0.266   9.452   4.385
14999SOL    HW247005   0.123   9.500   4.371
15000SOL     OW47006   6.162   8.480   4.028
15000SOL    HW147007   6.163   8.558   3.973
15000SOL    HW247008   6.149   8.513   4.117
15001SOL     OW47009   3.750   1.785   6.045
15001SOL    HW147010   3.844   1.790   6.065
15001SOL    HW247011   3.746   1.736   5.963
15002SOL     OW47012   4.064   1.993   0.424
15002SOL    HW147013   4.092   2.077   0.461
15002SOL    HW247014   4.088   1.998   0.331
15003SOL     OW47015   0.919   9.021  10.954
15003SOL    HW147016   0.855   9.059  10.894
15003SOL    HW247017   0.976   8.968  10.898
15004SOL     OW47018   0.350   1.355   2.802
15004SOL    HW147019   0.406   1.416   2.849
15004SOL    HW247020   0.286   1.326   2.867
15005SOL     OW47021   6.041   5.529   9.399
15005SOL    HW147022   6.129   5.491   9.388
15005SOL    HW247023   6.044   5.610   9.349
15006SOL     OW47024   0.541  10.753   2.235
15006SOL    HW147025   0.553  10.691   2.163
15006SOL    HW247026   0.449  10.746   2.258
15007SOL     OW47027   9.778   5.832  10.635
15007SOL    HW147028   9.827   5.911  10.657
15007SOL    HW247029   9.788   5.775  10.711
15008SOL     OW47030   1.289   8.019   5.948
15008SOL    HW147031   1.261   7.927   5.940
15008SOL    HW247032   1.211   8.070   5.927
15009SOL     OW47033   1.087   9.782   2.808
15009SOL    HW147034   1.116   9.703   2.854
15009SOL    HW247035   1.020   9.820   2.865
15010SOL     OW47036   2.261  10.054   2.685
15010SOL    HW147037   2.168  10.041   2.667
15010SOL    HW247038   2.264  10.131   2.740
15011SOL     OW47039   4.096  10.227   1.944
15011SOL    HW147040   4.072  10.257   1.856
15011SOL    HW247041   4.069  10.298   2.002
15012SOL     OW47042   4.957   3.560   3.232
15012SOL    HW147043   4.973   3.466   3.226
15012SOL    HW247044   4.867   3.571   3.202
15013SOL     OW47045   7.377  10.637   7.206
15013SOL    HW147046   7.312  10.615   7.139
15013SOL    HW247047   7.434  10.560   7.210
15014SOL     OW47048   4.827  10.597   2.709
15014SOL    HW147049   4.751  10.606   2.765
15014SOL    HW247050   4.824  10.506   2.679
15015SOL     OW47051   5.132   9.856   5.204
15015SOL    HW147052   5.164   9.872   5.115
15015SOL    HW247053   5.037   9.855   5.195
15016SOL     OW47054   0.276   4.916   1.964
15016SOL    HW147055   0.184   4.925   1.989
15016SOL    HW247056   0.324   4.956   2.036
15017SOL     OW47057   5.988   8.241   3.318
15017SOL    HW147058   6.081   8.265   3.315
15017SOL    HW247059   5.951   8.282   3.240
15018SOL     OW47060   6.300  10.555   5.545
15018SOL    HW147061   6.232  10.491   5.522
15018SOL    HW247062   6.302  10.615   5.470
15019SOL     OW47063   7.853   3.596   8.903
15019SOL    HW147064   7.797   3.641   8.839
15019SOL    HW247065   7.932   3.572   8.853
15020SOL     OW47066   3.182  10.988   5.156
15020SOL    HW147067   3.100  10.978   5.108
15020SOL    HW247068   3.236  10.914   5.127
15021SOL     OW47069   7.002   2.577   0.519
15021SOL    HW147070   7.027   2.548   0.607
15021SOL    HW247071   6.946   2.506   0.486
15022SOL     OW47072   1.930   1.317   1.195
15022SOL    HW147073   1.941   1.285   1.284
15022SOL    HW247074   1.900   1.240   1.146
15023SOL     OW47075   2.993   7.825   0.306
15023SOL    HW147076   3.067   7.802   0.362
15023SOL    HW247077   3.023   7.802   0.217
15024SOL     OW47078   9.633   9.573   6.976
15024SOL    HW147079   9.566   9.589   7.042
15024SOL    HW247080   9.680   9.495   7.007
15025SOL     OW47081   6.803   7.966   6.382
15025SOL    HW147082   6.830   8.033   6.444
15025SOL    HW247083   6.720   7.997   6.346
15026SOL     OW47084   6.360   0.460   4.342
15026SOL    HW147085   6.333   0.479   4.432
15026SOL    HW247086   6.301   0.390   4.313
15027SOL     OW47087   0.793   0.562   8.742
15027SOL    HW147088   0.767   0.503   8.670
15027SOL    HW247089   0.820   0.642   8.698
15028SOL     OW47090   6.646   1.954   1.511
15028SOL    HW147091   6.563   2.002   1.512
15028SOL    HW247092   6.622   1.865   1.484
15029SOL     OW47093   2.186   7.342   0.693
15029SOL    HW147094   2.129   7.321   0.619
15029SOL    HW247095   2.127   7.374   0.761
15030SOL     OW47096   5.910  10.138   4.825
15030SOL    HW147097   5.839  10.158   4.886
15030SOL    HW247098   5.889  10.051   4.790
15031SOL     OW47099   3.584   9.169   7.147
15031SOL    HW147100   3.650   9.199   7.209
15031SOL    HW247101   3.565   9.079   7.174
15032SOL     OW47102   2.920   6.843   4.351
15032SOL    HW147103   2.912   6.751   4.379
15032SOL    HW247104   2.923   6.838   4.255
15033SOL     OW47105   8.349  10.356   1.693
15033SOL    HW147106   8.403  10.354   1.771
15033SOL    HW247107   8.295  10.277   1.699
15034SOL     OW47108   0.082   3.616   9.841
15034SOL    HW147109   0.119   3.552   9.780
15034SOL    HW247110   0.111   3.701   9.807
15035SOL     OW47111   0.457   9.096   5.070
15035SOL    HW147112   0.445   9.050   5.153
15035SOL    HW247113   0.379   9.075   5.019
15036SOL     OW47114   7.100   4.794   3.609
15036SOL    HW147115   7.164   4.746   3.556
15036SOL    HW247116   7.148   4.821   3.687
15037SOL     OW47117   6.507   9.601   3.307
15037SOL    HW147118   6.506   9.506   3.324
15037SOL    HW247119   6.514   9.641   3.393
15038SOL     OW47120   5.515  10.433  10.734
15038SOL    HW147121   5.525  10.351  10.782
15038SOL    HW247122   5.424  10.458  10.748
15039SOL     OW47123   6.876   0.159   5.290
15039SOL    HW147124   6.820   0.085   5.313
15039SOL    HW247125   6.913   0.135   5.205
15040SOL     OW47126   6.917   4.448   5.018
15040SOL    HW147127   6.923   4.402   5.102
15040SOL    HW247128   6.882   4.382   4.957
15041SOL     OW47129   3.686   1.242   4.686
15041SOL    HW147130   3.772   1.228   4.725
15041SOL    HW247131   3.624   1.226   4.757
15042SOL     OW47132   3.155   7.689   3.317
15042SOL    HW147133   3.101   7.610   3.323
15042SOL    HW247134   3.182   7.707   3.407
15043SOL     OW47135   8.648   7.207   9.720
15043SOL    HW147136   8.675   7.125   9.677
15043SOL    HW247137   8.691   7.204   9.805
15044SOL     OW47138   0.998   2.906   9.801
15044SOL    HW147139   1.005   2.811   9.811
15044SOL    HW247140   0.951   2.935   9.879
15045SOL     OW47141   2.294  10.908   3.249
15045SOL    HW147142   2.305  10.981   3.188
15045SOL    HW247143   2.293  10.949   3.335
15046SOL     OW47144   3.086   2.588   9.287
15046SOL    HW147145   3.131   2.619   9.365
15046SOL    HW247146   3.014   2.650   9.275
15047SOL     OW47147   7.145   2.552   8.828
15047SOL    HW147148   7.081   2.508   8.772
15047SOL    HW247149   7.119   2.529   8.917
15048SOL     OW47150   3.440   2.672   0.851
15048SOL    HW147151   3.485   2.748   0.886
15048SOL    HW247152   3.429   2.691   0.758
15049SOL     OW47153   7.211   2.765   2.614
15049SOL    HW147154   7.229   2.671   2.621
15049SOL    HW247155   7.242   2.801   2.696
15050SOL     OW47156   0.448   0.841   1.013
15050SOL    HW147157   0.474   0.783   1.084
15050SOL    HW247158   0.417   0.781   0.944
15051SOL     OW47159   2.230   2.356   4.498
15051SOL    HW147160   2.292   2.310   4.555
15051SOL    HW247161   2.153   2.299   4.496
15052SOL     OW47162   2.235   5.795   6.487
15052SOL    HW147163   2.165   5.752   6.536
15052SOL    HW247164   2.190   5.854   6.427
15053SOL     OW47165   9.885   8.204   7.594
15053SOL    HW147166   9.875   8.290   7.553
15053SOL    HW247167   9.796   8.169   7.599
15054SOL     OW47168   2.473   5.333   9.398
15054SOL    HW147169   2.444   5.362   9.484
15054SOL    HW247170   2.544   5.271   9.416
15055SOL     OW47171   3.980  10.833   0.034
15055SOL    HW147172   3.944  10.747   0.055
15055SOL    HW247173   4.040  10.817  -0.038
15056SOL     OW47174   7.059  10.846   5.882
15056SOL    HW147175   7.022  10.844   5.793
15056SOL    HW247176   7.046  10.757   5.915
15057SOL     OW47177  10.817  10.934   2.889
15057SOL    HW147178  10.882  10.891   2.833
15057SOL    HW247179  10.824  10.888   2.973
15058SOL     OW47180   0.342   6.372   2.433
15058SOL    HW147181   0.423   6.422   2.423
15058SOL    HW247182   0.295   6.416   2.503
15059SOL     OW47183   6.046   2.338   1.784
15059SOL    HW147184   5.966   2.390   1.794
15059SOL    HW247185   6.117   2.401   1.795
15060SOL     OW47186   4.887   5.204   8.583
15060SOL    HW147187   4.970   5.244   8.608
15060SOL    HW247188   4.830   5.217   8.658
15061SOL     OW47189   4.635   2.901   2.685
15061SOL    HW147190   4.641   2.873   2.593
15061SOL    HW247191   4.569   2.970   2.685
15062SOL     OW47192   5.359   7.196   8.024
15062SOL    HW147193   5.267   7.177   8.042
15062SOL    HW247194   5.363   7.206   7.929
15063SOL     OW47195   1.738   9.429   2.602
15063SOL    HW147196   1.771   9.515   2.576
15063SOL    HW247197   1.717   9.386   2.519
15064SOL     OW47198   3.150   7.255   6.442
15064SOL    HW147199   3.195   7.308   6.376
15064SOL    HW247200   3.061   7.245   6.408
15065SOL     OW47201   6.466   7.142   9.939
15065SOL    HW147202   6.470   7.124   9.845
15065SOL    HW247203   6.394   7.204   9.948
15066SOL     OW47204   6.526  10.180   1.275
15066SOL    HW147205   6.617  10.187   1.247
15066SOL    HW247206   6.478  10.156   1.195
15067SOL     OW47207  10.132   0.765   3.783
15067SOL    HW147208  10.142   0.716   3.701
15067SOL    HW247209  10.089   0.703   3.842
15068SOL     OW47210   4.468   1.235   8.929
15068SOL    HW147211   4.471   1.232   8.833
15068SOL    HW247212   4.419   1.314   8.949
15069SOL     OW47213   4.633   8.764   0.841
15069SOL    HW147214   4.610   8.830   0.776
15069SOL    HW247215   4.686   8.810   0.905
15070SOL     OW47216   5.939   8.376   3.942
15070SOL    HW147217   6.020   8.407   3.983
15070SOL    HW247218   5.960   8.373   3.848
15071SOL     OW47219   3.889   7.080   9.178
15071SOL    HW147220   3.944   7.003   9.161
15071SOL    HW247221   3.826   7.081   9.106
15072SOL     OW47222  10.096   6.562   5.115
15072SOL    HW147223  10.109   6.580   5.208
15072SOL    HW247224  10.003   6.542   5.107
15073SOL     OW47225   5.192   9.991   7.869
15073SOL    HW147226   5.266  10.009   7.811
15073SOL    HW247227   5.117  10.031   7.825
15074SOL     OW47228   6.716   6.291  10.204
15074SOL    HW147229   6.666   6.278  10.123
15074SOL    HW247230   6.707   6.208  10.251
15075SOL     OW47231   7.153   0.286   5.001
15075SOL    HW147232   7.175   0.269   5.092
15075SOL    HW247233   7.058   0.293   5.000
15076SOL     OW47234  10.948   9.151   2.254
15076SOL    HW147235  10.927   9.230   2.303
15076SOL    HW247236  10.915   9.079   2.308
15077SOL     OW47237   0.688   3.327   7.685
15077SOL    HW147238   0.691   3.231   7.678
15077SOL    HW247239   0.757   3.357   7.626
15078SOL     OW47240  10.726   9.797   9.799
15078SOL    HW147241  10.751   9.706   9.814
15078SOL    HW247242  10.671   9.819   9.874
15079SOL     OW47243   2.500   4.602   0.834
15079SOL    HW147244   2.449   4.672   0.794
15079SOL    HW247245   2.555   4.646   0.899
15080SOL     OW47246   4.761   5.221   2.703
15080SOL    HW147247   4.729   5.131   2.713
15080SOL    HW247248   4.686   5.276   2.724
15081SOL     OW47249   1.328   7.129   2.259
15081SOL    HW147250   1.265   7.125   2.331
15081SOL    HW247251   1.409   7.093   2.296
15082SOL     OW47252   1.015   5.375   2.088
15082SOL    HW147253   0.999   5.354   1.996
15082SOL    HW247254   1.106   5.350   2.102
15083SOL     OW47255   6.885  10.312   6.989
15083SOL    HW147256   6.930  10.340   7.068
15083SOL    HW247257   6.792  10.318   7.010
15084SOL     OW47258   3.197   2.901   3.272
15084SOL    HW147259   3.183   2.881   3.364
15084SOL    HW247260   3.109   2.900   3.234
15085SOL     OW47261   3.879   1.641   4.516
15085SOL    HW147262   3.958   1.645   4.461
15085SOL    HW247263   3.837   1.559   4.490
15086SOL     OW47264  10.719   9.877   3.680
15086SOL    HW147265  10.676   9.800   3.643
15086SOL    HW247266  10.705   9.946   3.615
15087SOL     OW47267   9.392   7.805   3.232
15087SOL    HW147268   9.317   7.841   3.279
15087SOL    HW247269   9.359   7.725   3.191
15088SOL     OW47270   7.995   2.683   3.661
15088SOL    HW147271   8.074   2.640   3.693
15088SOL    HW247272   7.951   2.615   3.609
15089SOL     OW47273   6.552   1.417   1.601
15089SOL    HW147274   6.609   1.473   1.548
15089SOL    HW247275   6.469   1.416   1.553
15090SOL     OW47276   3.842   8.579   7.665
15090SOL    HW147277   3.758   8.551   7.701
15090SOL    HW247278   3.885   8.497   7.639
15091SOL     OW47279   1.664  10.116   4.115
15091SOL    HW147280   1.686  10.161   4.196
15091SOL    HW247281   1.672  10.183   4.047
15092SOL     OW47282   4.222   8.071  10.713
15092SOL    HW147283   4.159   8.141  10.702
15092SOL    HW247284   4.169   7.995  10.739
15093SOL     OW47285   2.314  10.819   2.695
15093SOL    HW147286   2.255  10.894   2.689
15093SOL    HW247287   2.401  10.856   2.678
15094SOL     OW47288  11.057   7.149   9.895
15094SOL    HW147289  11.069   7.239   9.865
15094SOL    HW247290  11.052   7.156   9.990
15095SOL     OW47291   7.974  10.763   3.967
15095SOL    HW147292   7.952  10.722   3.883
15095SOL    HW247293   8.002  10.852   3.943
15096SOL     OW47294   1.798   8.430   0.286
15096SOL    HW147295   1.876   8.466   0.243
15096SOL    HW247296   1.727   8.444   0.223
15097SOL     OW47297   5.534   1.596   5.188
15097SOL    HW147298   5.583   1.670   5.152
15097SOL    HW247299   5.594   1.556   5.251
15098SOL     OW47300   3.097   0.250   5.411
15098SOL    HW147301   3.128   0.161   5.426
15098SOL    HW247302   3.041   0.269   5.486
15099SOL     OW47303   8.995   7.503   0.536
15099SOL    HW147304   8.954   7.589   0.529
15099SOL    HW247305   9.064   7.514   0.601
15100SOL     OW47306   2.522   7.023   6.727
15100SOL    HW147307   2.567   6.951   6.771
15100SOL    HW247308   2.466   6.980   6.662
15101SOL     OW47309   4.208   1.544   5.649
15101SOL    HW147310   4.148   1.618   5.646
15101SOL    HW247311   4.263   1.560   5.726
15102SOL     OW47312   9.149   0.933   0.905
15102SOL    HW147313   9.075   0.878   0.880
15102SOL    HW247314   9.225   0.876   0.894
15103SOL     OW47315   7.645   9.411  10.001
15103SOL    HW147316   7.636   9.443  10.091
15103SOL    HW247317   7.706   9.472   9.959
15104SOL     OW47318   0.114   2.316   9.765
15104SOL    HW147319   0.028   2.287   9.796
15104SOL    HW247320   0.112   2.411   9.773
15105SOL     OW47321   4.414   1.191   3.243
15105SOL    HW147322   4.415   1.144   3.159
15105SOL    HW247323   4.494   1.162   3.287
15106SOL     OW47324   6.011   3.063   9.779
15106SOL    HW147325   5.981   2.977   9.809
15106SOL    HW247326   6.090   3.044   9.728
15107SOL     OW47327  10.173   9.588   3.882
15107SOL    HW147328  10.258   9.550   3.906
15107SOL    HW247329  10.196   9.666   3.831
15108SOL     OW47330   3.035   7.198   3.962
15108SOL    HW147331   2.988   7.158   4.035
15108SOL    HW247332   2.966   7.230   3.904
15109SOL     OW47333   8.882   1.318   6.956
15109SOL    HW147334   8.791   1.318   6.926
15109SOL    HW247335   8.900   1.409   6.977
15110SOL     OW47336   5.469   8.795   2.096
15110SOL    HW147337   5.560   8.765   2.097
15110SOL    HW247338   5.429   8.746   2.024
15111SOL     OW47339   9.846   3.562   7.596
15111SOL    HW147340   9.831   3.560   7.690
15111SOL    HW247341   9.921   3.620   7.585
15112SOL     OW47342   2.944   1.456   5.003
15112SOL    HW147343   2.850   1.456   5.019
15112SOL    HW247344   2.953   1.492   4.914
15113SOL     OW47345   5.297   7.233   5.074
15113SOL    HW147346   5.240   7.279   5.135
15113SOL    HW247347   5.385   7.247   5.108
15114SOL     OW47348   4.981   9.609   0.485
15114SOL    HW147349   5.068   9.571   0.473
15114SOL    HW247350   4.921   9.537   0.465
15115SOL     OW47351   0.526   7.687   2.781
15115SOL    HW147352   0.580   7.639   2.844
15115SOL    HW247353   0.586   7.751   2.742
15116SOL     OW47354   8.376   8.304   9.638
15116SOL    HW147355   8.358   8.372   9.573
15116SOL    HW247356   8.306   8.313   9.703
15117SOL     OW47357   8.290  10.251   5.295
15117SOL    HW147358   8.246  10.184   5.348
15117SOL    HW247359   8.319  10.317   5.358
15118SOL     OW47360   9.535   2.449   3.425
15118SOL    HW147361   9.491   2.439   3.340
15118SOL    HW247362   9.469   2.487   3.482
15119SOL     OW47363   4.137   2.139  10.121
15119SOL    HW147364   4.076   2.143  10.047
15119SOL    HW247365   4.211   2.088  10.087
15120SOL     OW47366   2.847   3.193   5.654
15120SOL    HW147367   2.913   3.124   5.647
15120SOL    HW247368   2.805   3.178   5.738
15121SOL     OW47369   8.808   9.878   2.123
15121SOL    HW147370   8.851   9.947   2.073
15121SOL    HW247371   8.775   9.921   2.201
15122SOL     OW47372   2.248   1.514   4.310
15122SOL    HW147373   2.169   1.460   4.311
15122SOL    HW247374   2.320   1.451   4.302
15123SOL     OW47375  10.802   7.902   6.544
15123SOL    HW147376  10.854   7.955   6.603
15123SOL    HW247377  10.822   7.936   6.457
15124SOL     OW47378   1.351   2.323   3.281
15124SOL    HW147379   1.446   2.310   3.281
15124SOL    HW247380   1.340   2.418   3.275
15125SOL     OW47381   8.437   8.756   0.684
15125SOL    HW147382   8.479   8.768   0.598
15125SOL    HW247383   8.377   8.682   0.670
15126SOL     OW47384   2.319  10.625   2.102
15126SOL    HW147385   2.312  10.678   2.181
15126SOL    HW247386   2.366  10.546   2.130
15127SOL     OW47387   1.600   1.674   7.428
15127SOL    HW147388   1.559   1.748   7.471
15127SOL    HW247389   1.527   1.618   7.402
15128SOL     OW47390   8.251   5.375   3.121
15128SOL    HW147391   8.321   5.400   3.181
15128SOL    HW247392   8.186   5.331   3.176
15129SOL     OW47393   8.994   2.069   2.692
15129SOL    HW147394   9.026   2.064   2.782
15129SOL    HW247395   8.918   2.127   2.697
15130SOL     OW47396   5.253   8.557   4.702
15130SOL    HW147397   5.257   8.468   4.738
15130SOL    HW247398   5.168   8.591   4.731
15131SOL     OW47399  10.515   8.813   2.706
15131SOL    HW147400  10.424   8.796   2.728
15131SOL    HW247401  10.556   8.835   2.789
15132SOL     OW47402   9.524   1.616   1.799
15132SOL    HW147403   9.466   1.585   1.729
15132SOL    HW247404   9.546   1.705   1.774
15133SOL     OW47405   1.434  10.721   3.290
15133SOL    HW147406   1.380  10.783   3.339
15133SOL    HW247407   1.499  10.775   3.245
15134SOL     OW47408   7.441   6.377   9.372
15134SOL    HW147409   7.430   6.462   9.330
15134SOL    HW247410   7.437   6.314   9.299
15135SOL     OW47411   4.394   2.382   1.050
15135SOL    HW147412   4.341   2.409   1.125
15135SOL    HW247413   4.484   2.389   1.081
15136SOL     OW47414   4.359   7.086   2.188
15136SOL    HW147415   4.445   7.044   2.182
15136SOL    HW247416   4.308   7.028   2.245
15137SOL     OW47417   5.035   9.247   5.594
15137SOL    HW147418   5.040   9.253   5.498
15137SOL    HW247419   5.083   9.167   5.615
15138SOL     OW47420  10.468   9.144   4.671
15138SOL    HW147421  10.412   9.132   4.594
15138SOL    HW247422  10.541   9.084   4.657
15139SOL     OW47423   5.055   8.648   6.084
15139SOL    HW147424   5.074   8.741   6.078
15139SOL    HW247425   5.139   8.608   6.106
15140SOL     OW47426  11.025   3.858   3.164
15140SOL    HW147427  10.965   3.932   3.161
15140SOL    HW247428  11.052   3.845   3.073
15141SOL     OW47429   4.438   9.392   4.538
15141SOL    HW147430   4.376   9.348   4.596
15141SOL    HW247431   4.486   9.452   4.594
15142SOL     OW47432   6.407   2.606   9.749
15142SOL    HW147433   6.463   2.673   9.710
15142SOL    HW247434   6.458   2.571   9.822
15143SOL     OW47435   9.697   5.280   7.150
15143SOL    HW147436   9.690   5.222   7.226
15143SOL    HW247437   9.668   5.226   7.076
15144SOL     OW47438   6.564   4.174   2.891
15144SOL    HW147439   6.536   4.103   2.949
15144SOL    HW247440   6.554   4.253   2.943
15145SOL     OW47441   6.005  10.398   5.087
15145SOL    HW147442   5.955  10.360   5.014
15145SOL    HW247443   6.051  10.323   5.125
15146SOL     OW47444   7.056   8.836   5.689
15146SOL    HW147445   6.974   8.844   5.737
15146SOL    HW247446   7.032   8.791   5.608
15147SOL     OW47447   3.249   8.407   4.172
15147SOL    HW147448   3.292   8.321   4.178
15147SOL    HW247449   3.321   8.468   4.156
15148SOL     OW47450   3.424   5.680   3.198
15148SOL    HW147451   3.492   5.685   3.130
15148SOL    HW247452   3.342   5.684   3.149
15149SOL     OW47453   5.610   7.586   7.903
15149SOL    HW147454   5.533   7.585   7.846
15149SOL    HW247455   5.659   7.663   7.875
15150SOL     OW47456   0.678   1.834  10.975
15150SOL    HW147457   0.738   1.904  10.948
15150SOL    HW247458   0.735   1.770  11.018
15151SOL     OW47459   3.121   6.304   6.189
15151SOL    HW147460   3.124   6.398   6.175
15151SOL    HW247461   3.178   6.289   6.264
15152SOL     OW47462   1.169   1.216   6.959
15152SOL    HW147463   1.193   1.287   6.900
15152SOL    HW247464   1.098   1.252   7.012
15153SOL     OW47465   0.904   1.877   5.140
15153SOL    HW147466   0.837   1.872   5.208
15153SOL    HW247467   0.952   1.958   5.157
15154SOL     OW47468   8.518  10.730   7.571
15154SOL    HW147469   8.422  10.731   7.572
15154SOL    HW247470   8.543  10.679   7.648
15155SOL     OW47471   9.363   2.910   7.884
15155SOL    HW147472   9.287   2.957   7.851
15155SOL    HW247473   9.434   2.936   7.825
15156SOL     OW47474   4.403   6.975   1.635
15156SOL    HW147475   4.386   6.885   1.607
15156SOL    HW247476   4.342   6.989   1.707
15157SOL     OW47477   3.238  10.187   7.028
15157SOL    HW147478   3.157  10.197   6.978
15157SOL    HW247479   3.271  10.100   7.003
15158SOL     OW47480   3.761   1.267   5.552
15158SOL    HW147481   3.769   1.199   5.485
15158SOL    HW247482   3.851   1.286   5.578
15159SOL     OW47483   1.710   7.353   8.701
15159SOL    HW147484   1.664   7.276   8.735
15159SOL    HW247485   1.684   7.424   8.759
15160SOL     OW47486   6.991   5.905  10.206
15160SOL    HW147487   7.074   5.865  10.234
15160SOL    HW247488   6.992   5.898  10.110
15161SOL     OW47489   4.349  10.612   0.661
15161SOL    HW147490   4.268  10.658   0.684
15161SOL    HW247491   4.327  10.519   0.667
15162SOL     OW47492   2.365   1.692   5.785
15162SOL    HW147493   2.351   1.776   5.828
15162SOL    HW247494   2.353   1.710   5.692
15163SOL     OW47495   0.297   1.274   3.122
15163SOL    HW147496   0.258   1.247   3.205
15163SOL    HW247497   0.284   1.369   3.118
15164SOL     OW47498   6.367   4.529   4.991
15164SOL    HW147499   6.294   4.495   5.042
15164SOL    HW247500   6.327   4.567   4.913
15165SOL     OW47501   6.038   3.435   4.309
15165SOL    HW147502   5.984   3.512   4.291
15165SOL    HW247503   6.065   3.404   4.222
15166SOL     OW47504   6.260   2.578   1.758
15166SOL    HW147505   6.282   2.538   1.674
15166SOL    HW247506   6.334   2.635   1.778
15167SOL     OW47507   8.502   9.861   9.982
15167SOL    HW147508   8.581   9.885   9.932
15167SOL    HW247509   8.429   9.882   9.923
15168SOL     OW47510   9.525  11.086   1.269
15168SOL    HW147511   9.593  11.044   1.322
15168SOL    HW247512   9.446  11.033   1.284
15169SOL     OW47513   9.147   7.531   4.570
15169SOL    HW147514   9.083   7.595   4.601
15169SOL    HW247515   9.157   7.469   4.642
15170SOL     OW47516   7.369   3.091   8.007
15170SOL    HW147517   7.394   3.063   8.095
15170SOL    HW247518   7.341   3.182   8.018
15171SOL     OW47519   6.834   9.488   3.379
15171SOL    HW147520   6.808   9.397   3.363
15171SOL    HW247521   6.916   9.498   3.331
15172SOL     OW47522   0.082   1.241  10.664
15172SOL    HW147523   0.176   1.259  10.660
15172SOL    HW247524   0.074   1.164  10.721
15173SOL     OW47525   4.644   5.127  10.793
15173SOL    HW147526   4.651   5.033  10.812
15173SOL    HW247527   4.583   5.131  10.719
15174SOL     OW47528   2.040   8.643   0.609
15174SOL    HW147529   2.008   8.696   0.681
15174SOL    HW247530   2.034   8.553   0.641
15175SOL     OW47531   6.500   6.599   6.448
15175SOL    HW147532   6.498   6.504   6.436
15175SOL    HW247533   6.465   6.613   6.536
15176SOL     OW47534   6.639   0.341   2.439
15176SOL    HW147535   6.710   0.309   2.494
15176SOL    HW247536   6.682   0.369   2.358
15177SOL     OW47537   6.099   8.914   0.848
15177SOL    HW147538   6.078   8.972   0.920
15177SOL    HW247539   6.027   8.851   0.847
15178SOL     OW47540   4.347   0.677   2.246
15178SOL    HW147541   4.282   0.660   2.314
15178SOL    HW247542   4.364   0.591   2.207
15179SOL     OW47543   7.005   2.381  11.055
15179SOL    HW147544   7.050   2.299  11.075
15179SOL    HW247545   6.912   2.360  11.064
15180SOL     OW47546   6.161   7.163  10.317
15180SOL    HW147547   6.116   7.242  10.346
15180SOL    HW247548   6.254   7.186  10.318
15181SOL     OW47549   2.220   2.965   3.118
15181SOL    HW147550   2.253   2.937   3.032
15181SOL    HW247551   2.298   2.991   3.166
15182SOL     OW47552   6.566   0.781  10.841
15182SOL    HW147553   6.489   0.802  10.894
15182SOL    HW247554   6.636   0.836  10.876
15183SOL     OW47555   1.982   2.794   7.088
15183SOL    HW147556   1.909   2.851   7.065
15183SOL    HW247557   1.942   2.724   7.140
15184SOL     OW47558  10.148   7.291   8.931
15184SOL    HW147559  10.222   7.252   8.977
15184SOL    HW247560  10.107   7.348   8.995
15185SOL     OW47561   5.614   1.819  10.300
15185SOL    HW147562   5.595   1.909  10.327
15185SOL    HW247563   5.705   1.822  10.269
15186SOL     OW47564   4.962   1.585   5.633
15186SOL    HW147565   4.958   1.613   5.724
15186SOL    HW247566   4.965   1.489   5.637
15187SOL     OW47567   5.644   6.562  10.023
15187SOL    HW147568   5.712   6.541  10.087
15187SOL    HW247569   5.642   6.657  10.020
15188SOL     OW47570   3.849   3.416   8.454
15188SOL    HW147571   3.878   3.327   8.474
15188SOL    HW247572   3.816   3.450   8.537
15189SOL     OW47573   0.527   0.568   8.940
15189SOL    HW147574   0.571   0.483   8.946
15189SOL    HW247575   0.599   0.631   8.930
15190SOL     OW47576   2.831   9.892   0.267
15190SOL    HW147577   2.801   9.815   0.315
15190SOL    HW247578   2.808   9.874   0.176
15191SOL     OW47579   5.221   2.894   3.844
15191SOL    HW147580   5.288   2.943   3.891
15191SOL    HW247581   5.153   2.876   3.909
15192SOL     OW47582   5.935   1.412   7.595
15192SOL    HW147583   6.030   1.400   7.590
15192SOL    HW247584   5.921   1.459   7.677
15193SOL     OW47585  11.090   4.955   8.354
15193SOL    HW147586  11.105   4.872   8.308
15193SOL    HW247587  11.130   4.942   8.440
15194SOL     OW47588   3.296  10.454   9.366
15194SOL    HW147589   3.320  10.539   9.402
15194SOL    HW247590   3.262  10.474   9.279
15195SOL     OW47591   4.660   7.020   1.404
15195SOL    HW147592   4.750   7.052   1.395
15195SOL    HW247593   4.630   7.055   1.488
15196SOL     OW47594   2.766   7.472   4.823
15196SOL    HW147595   2.726   7.544   4.871
15196SOL    HW247596   2.714   7.395   4.846
15197SOL     OW47597   7.230   6.100   2.700
15197SOL    HW147598   7.188   6.179   2.733
15197SOL    HW247599   7.160   6.035   2.698
15198SOL     OW47600   3.464   9.484   7.364
15198SOL    HW147601   3.518   9.416   7.405
15198SOL    HW247602   3.427   9.441   7.287
15199SOL     OW47603   6.483   3.262   1.187
15199SOL    HW147604   6.440   3.208   1.253
15199SOL    HW247605   6.417   3.275   1.119
15200SOL     OW47606   9.018   9.729   1.775
15200SOL    HW147607   9.068   9.683   1.707
15200SOL    HW247608   8.952   9.778   1.726
15201SOL     OW47609   5.849   9.518   5.013
15201SOL    HW147610   5.795   9.575   5.067
15201SOL    HW247611   5.874   9.446   5.071
15202SOL     OW47612   0.423   8.775   8.605
15202SOL    HW147613   0.487   8.845   8.618
15202SOL    HW247614   0.434   8.718   8.681
15203SOL     OW47615   8.073   2.496   6.229
15203SOL    HW147616   8.063   2.479   6.135
15203SOL    HW247617   8.168   2.493   6.243
15204SOL     OW47618   6.440   2.665  10.325
15204SOL    HW147619   6.455   2.679  10.231
15204SOL    HW247620   6.351   2.696  10.340
15205SOL     OW47621   7.772  10.312   4.650
15205SOL    HW147622   7.712  10.328   4.577
15205SOL    HW247623   7.750  10.224   4.680
15206SOL     OW47624   6.166  10.802   0.215
15206SOL    HW147625   6.117  10.747   0.154
15206SOL    HW247626   6.100  10.838   0.274
15207SOL     OW47627   4.561   9.034   5.184
15207SOL    HW147628   4.468   9.014   5.195
15207SOL    HW247629   4.576   9.111   5.238
15208SOL     OW47630   2.836   2.538   9.566
15208SOL    HW147631   2.815   2.488   9.486
15208SOL    HW247632   2.876   2.619   9.534
15209SOL     OW47633  10.824   0.572   4.789
15209SOL    HW147634  10.798   0.636   4.854
15209SOL    HW247635  10.745   0.520   4.772
15210SOL     OW47636   3.575   1.859   4.372
15210SOL    HW147637   3.533   1.911   4.304
15210SOL    HW247638   3.516   1.865   4.447
15211SOL     OW47639   3.368   0.476   4.037
15211SOL    HW147640   3.289   0.422   4.026
15211SOL    HW247641   3.341   0.548   4.093
15212SOL     OW47642   3.834   3.386   1.927
15212SOL    HW147643   3.905   3.428   1.976
15212SOL    HW247644   3.756   3.399   1.981
15213SOL     OW47645   0.289   1.707   6.750
15213SOL    HW147646   0.261   1.709   6.841
15213SOL    HW247647   0.287   1.798   6.722
15214SOL     OW47648   1.530   8.964   4.634
15214SOL    HW147649   1.442   8.926   4.626
15214SOL    HW247650   1.516   9.058   4.629
15215SOL     OW47651   5.369   3.901   4.086
15215SOL    HW147652   5.398   3.810   4.084
15215SOL    HW247653   5.394   3.935   4.000
15216SOL     OW47654   1.620   7.447   2.943
15216SOL    HW147655   1.594   7.360   2.975
15216SOL    HW247656   1.547   7.475   2.887
15217SOL     OW47657   1.036   0.973   6.882
15217SOL    HW147658   0.990   0.962   6.965
15217SOL    HW247659   1.089   1.052   6.894
15218SOL     OW47660   5.941   6.553   2.283
15218SOL    HW147661   5.948   6.529   2.375
15218SOL    HW247662   5.901   6.476   2.241
15219SOL     OW47663   0.996   2.648   4.336
15219SOL    HW147664   1.019   2.736   4.366
15219SOL    HW247665   1.066   2.592   4.369
15220SOL     OW47666   4.271   1.227   4.332
15220SOL    HW147667   4.302   1.293   4.394
15220SOL    HW247668   4.335   1.155   4.339
15221SOL     OW47669   9.614   1.080   3.224
15221SOL    HW147670   9.682   1.142   3.198
15221SOL    HW247671   9.547   1.089   3.156
15222SOL     OW47672   1.809   1.891   8.540
15222SOL    HW147673   1.791   1.960   8.476
15222SOL    HW247674   1.727   1.880   8.588
15223SOL     OW47675   7.691   6.030   1.685
15223SOL    HW147676   7.604   6.067   1.672
15223SOL    HW247677   7.743   6.101   1.721
15224SOL     OW47678   4.183   1.111   5.543
15224SOL    HW147679   4.148   1.073   5.623
15224SOL    HW247680   4.181   1.039   5.479
15225SOL     OW47681   5.439   3.833   9.817
15225SOL    HW147682   5.350   3.823   9.850
15225SOL    HW247683   5.445   3.771   9.744
15226SOL     OW47684   6.064   1.698   1.321
15226SOL    HW147685   6.026   1.639   1.386
15226SOL    HW247686   6.065   1.784   1.363
15227SOL     OW47687   5.618   4.833   4.072
15227SOL    HW147688   5.654   4.906   4.022
15227SOL    HW247689   5.588   4.872   4.154
15228SOL     OW47690   7.797   0.458  10.140
15228SOL    HW147691   7.710   0.446  10.177
15228SOL    HW247692   7.857   0.438  10.212
15229SOL     OW47693   7.626   7.403   6.480
15229SOL    HW147694   7.602   7.357   6.399
15229SOL    HW247695   7.690   7.345   6.522
15230SOL     OW47696   8.056   6.784   9.711
15230SOL    HW147697   7.989   6.720   9.736
15230SOL    HW247698   8.107   6.739   9.643
15231SOL     OW47699  10.596   0.648   6.628
15231SOL    HW147700  10.568   0.649   6.536
15231SOL    HW247701  10.525   0.603   6.674
15232SOL     OW47702   2.555  10.566   8.122
15232SOL    HW147703   2.545  10.545   8.214
15232SOL    HW247704   2.494  10.638   8.106
15233SOL     OW47705   6.203   5.510   0.866
15233SOL    HW147706   6.152   5.587   0.842
15233SOL    HW247707   6.142   5.437   0.855
15234SOL     OW47708   0.197   0.381   6.762
15234SOL    HW147709   0.186   0.435   6.684
15234SOL    HW247710   0.179   0.439   6.835
15235SOL     OW47711   2.477   8.206   7.638
15235SOL    HW147712   2.442   8.145   7.572
15235SOL    HW247713   2.453   8.167   7.722
15236SOL     OW47714   4.571   7.981   5.694
15236SOL    HW147715   4.499   7.942   5.744
15236SOL    HW247716   4.620   7.906   5.660
15237SOL     OW47717   0.189   3.056   6.426
15237SOL    HW147718   0.229   3.127   6.475
15237SOL    HW247719   0.262   3.015   6.379
15238SOL     OW47720   3.014  10.075   7.243
15238SOL    HW147721   3.096  10.120   7.265
15238SOL    HW247722   3.039  10.013   7.174
15239SOL     OW47723   3.757   3.746  10.243
15239SOL    HW147724   3.753   3.734  10.148
15239SOL    HW247725   3.669   3.774  10.267
15240SOL     OW47726   6.570   2.251   4.963
15240SOL    HW147727   6.613   2.285   5.041
15240SOL    HW247728   6.642   2.231   4.903
15241SOL     OW47729   8.829   3.651   2.077
15241SOL    HW147730   8.749   3.647   2.128
15241SOL    HW247731   8.857   3.559   2.070
15242SOL     OW47732   2.172  10.252   2.993
15242SOL    HW147733   2.159  10.176   3.050
15242SOL    HW247734   2.233  10.308   3.040
15243SOL     OW47735   6.491   5.890   1.361
15243SOL    HW147736   6.586   5.886   1.374
15243SOL    HW247737   6.455   5.911   1.447
15244SOL     OW47738   7.863   8.550   0.675
15244SOL    HW147739   7.901   8.475   0.721
15244SOL    HW247740   7.829   8.513   0.593
15245SOL     OW47741   3.835  10.213   9.273
15245SOL    HW147742   3.792  10.241   9.192
15245SOL    HW247743   3.874  10.293   9.308
15246SOL     OW47744   8.217   7.459   4.311
15246SOL    HW147745   8.235   7.374   4.270
15246SOL    HW247746   8.192   7.515   4.238
15247SOL     OW47747   8.444   1.385  10.058
15247SOL    HW147748   8.448   1.297  10.020
15247SOL    HW247749   8.448   1.370  10.152
15248SOL     OW47750   3.834   0.226   5.785
15248SOL    HW147751   3.848   0.133   5.768
15248SOL    HW247752   3.915   0.268   5.756
15249SOL     OW47753   7.768  10.667  10.000
15249SOL    HW147754   7.693  10.716   9.965
15249SOL    HW247755   7.834  10.673   9.931
15250SOL     OW47756   8.039   5.948   9.237
15250SOL    HW147757   7.998   5.991   9.162
15250SOL    HW247758   7.983   5.872   9.254
15251SOL     OW47759   3.742   0.458   0.687
15251SOL    HW147760   3.798   0.491   0.617
15251SOL    HW247761   3.745   0.363   0.676
15252SOL     OW47762   5.284   7.352   0.723
15252SOL    HW147763   5.330   7.436   0.729
15252SOL    HW247764   5.336   7.301   0.661
15253SOL     OW47765   3.081   1.448   3.260
15253SOL    HW147766   3.061   1.361   3.224
15253SOL    HW247767   2.996   1.491   3.267
15254SOL     OW47768   4.177  10.707   4.643
15254SOL    HW147769   4.149  10.617   4.628
15254SOL    HW247770   4.113  10.760   4.596
15255SOL     OW47771   7.196   7.240   9.152
15255SOL    HW147772   7.185   7.169   9.089
15255SOL    HW247773   7.287   7.267   9.142
15256SOL     OW47774   6.443   1.292   3.534
15256SOL    HW147775   6.500   1.215   3.545
15256SOL    HW247776   6.354   1.256   3.538
15257SOL     OW47777   9.243   9.670   9.108
15257SOL    HW147778   9.157   9.709   9.124
15257SOL    HW247779   9.277   9.717   9.032
15258SOL     OW47780   5.635   0.849  10.579
15258SOL    HW147781   5.598   0.877  10.495
15258SOL    HW247782   5.720   0.810  10.556
15259SOL     OW47783   7.787   2.858   6.778
15259SOL    HW147784   7.829   2.782   6.738
15259SOL    HW247785   7.715   2.821   6.829
15260SOL     OW47786   2.255   0.914   9.678
15260SOL    HW147787   2.188   0.889   9.614
15260SOL    HW247788   2.251   1.009   9.680
15261SOL     OW47789   6.973   2.347   6.897
15261SOL    HW147790   6.981   2.355   6.992
15261SOL    HW247791   6.905   2.410   6.873
15262SOL     OW47792   8.007   1.151   4.936
15262SOL    HW147793   7.924   1.188   4.907
15262SOL    HW247794   8.072   1.189   4.877
15263SOL     OW47795   7.497   6.713   0.597
15263SOL    HW147796   7.436   6.679   0.531
15263SOL    HW247797   7.470   6.804   0.610
15264SOL     OW47798   8.144  10.452   6.126
15264SOL    HW147799   8.177  10.460   6.036
15264SOL    HW247800   8.210  10.496   6.179
15265SOL     OW47801   6.426   2.813   5.371
15265SOL    HW147802   6.478   2.859   5.305
15265SOL    HW247803   6.341   2.799   5.329
15266SOL     OW47804   0.709   4.787   2.187
15266SOL    HW147805   0.641   4.846   2.218
15266SOL    HW247806   0.704   4.712   2.246
15267SOL     OW47807   3.035   4.003   7.271
15267SOL    HW147808   3.027   4.098   7.271
15267SOL    HW247809   2.997   3.975   7.354
15268SOL     OW47810   6.288   8.963   5.206
15268SOL    HW147811   6.378   8.931   5.202
15268SOL    HW247812   6.236   8.891   5.170
15269SOL     OW47813   1.634   4.184   8.432
15269SOL    HW147814   1.612   4.269   8.469
15269SOL    HW247815   1.721   4.196   8.394
15270SOL     OW47816   2.350   2.837   2.125
15270SOL    HW147817   2.343   2.827   2.220
15270SOL    HW247818   2.410   2.767   2.098
15271SOL     OW47819   6.580   3.813  10.298
15271SOL    HW147820   6.584   3.883  10.233
15271SOL    HW247821   6.671   3.800  10.325
15272SOL     OW47822   4.847  10.531   1.864
15272SOL    HW147823   4.918  10.516   1.926
15272SOL    HW247824   4.787  10.457   1.878
15273SOL     OW47825   0.484   8.179   2.794
15273SOL    HW147826   0.495   8.199   2.701
15273SOL    HW247827   0.442   8.257   2.830
15274SOL     OW47828   8.056   2.790   3.216
15274SOL    HW147829   8.012   2.868   3.248
15274SOL    HW247830   7.987   2.725   3.206
15275SOL     OW47831   8.494   6.746   7.166
15275SOL    HW147832   8.467   6.690   7.239
15275SOL    HW247833   8.585   6.770   7.186
15276SOL     OW47834   4.870  10.949   7.440
15276SOL    HW147835   4.951  10.988   7.407
15276SOL    HW247836   4.801  10.987   7.385
15277SOL     OW47837   4.959   7.205   7.899
15277SOL    HW147838   5.022   7.165   7.959
15277SOL    HW247839   4.885   7.144   7.898
15278SOL     OW47840   9.764   4.169   8.397
15278SOL    HW147841   9.783   4.153   8.304
15278SOL    HW247842   9.708   4.096   8.423
15279SOL     OW47843   4.737  11.078   5.529
15279SOL    HW147844   4.738  11.174   5.528
15279SOL    HW247845   4.652  11.055   5.491
15280SOL     OW47846   5.753  10.186   3.382
15280SOL    HW147847   5.849  10.186   3.389
15280SOL    HW247848   5.732  10.100   3.344
15281SOL     OW47849   0.423   3.582   4.555
15281SOL    HW147850   0.460   3.665   4.526
15281SOL    HW247851   0.337   3.605   4.591
15282SOL     OW47852   2.278   1.145   2.618
15282SOL    HW147853   2.267   1.110   2.706
15282SOL    HW247854   2.373   1.148   2.605
15283SOL     OW47855   3.799   1.255   5.208
15283SOL    HW147856   3.815   1.182   5.148
15283SOL    HW247857   3.885   1.293   5.222
15284SOL     OW47858  10.531   0.430  10.174
15284SOL    HW147859  10.556   0.392  10.258
15284SOL    HW247860  10.614   0.459  10.135
15285SOL     OW47861   5.123  10.657   7.281
15285SOL    HW147862   5.104  10.676   7.189
15285SOL    HW247863   5.056  10.594   7.307
15286SOL     OW47864   4.202   1.710   8.424
15286SOL    HW147865   4.226   1.622   8.394
15286SOL    HW247866   4.254   1.769   8.369
15287SOL     OW47867   5.350   5.503   1.595
15287SOL    HW147868   5.270   5.541   1.630
15287SOL    HW247869   5.403   5.481   1.672
15288SOL     OW47870   3.613  10.009   0.620
15288SOL    HW147871   3.616  10.046   0.708
15288SOL    HW247872   3.690   9.952   0.615
15289SOL     OW47873   6.781   8.601   5.815
15289SOL    HW147874   6.704   8.589   5.759
15289SOL    HW247875   6.852   8.559   5.767
15290SOL     OW47876   4.259   8.336   7.505
15290SOL    HW147877   4.270   8.266   7.440
15290SOL    HW247878   4.298   8.301   7.585
15291SOL     OW47879   7.646   8.735   8.217
15291SOL    HW147880   7.656   8.654   8.167
15291SOL    HW247881   7.735   8.767   8.230
15292SOL     OW47882   2.225   3.823  10.926
15292SOL    HW147883   2.142   3.868  10.912
15292SOL    HW247884   2.292   3.888  10.906
15293SOL     OW47885   3.281   9.527   2.664
15293SOL    HW147886   3.339   9.519   2.739
15293SOL    HW247887   3.205   9.473   2.686
15294SOL     OW47888   7.656   0.944   1.220
15294SOL    HW147889   7.590   1.002   1.258
15294SOL    HW247890   7.657   0.966   1.127
15295SOL     OW47891   4.682   4.220   9.047
15295SOL    HW147892   4.650   4.132   9.067
15295SOL    HW247893   4.650   4.236   8.958
15296SOL     OW47894   1.590  10.255   8.296
15296SOL    HW147895   1.610  10.334   8.345
15296SOL    HW247896   1.638  10.186   8.341
15297SOL     OW47897   7.128   9.429   7.390
15297SOL    HW147898   7.062   9.359   7.389
15297SOL    HW247899   7.183   9.410   7.314
15298SOL     OW47900   7.558   2.745   9.067
15298SOL    HW147901   7.592   2.698   8.990
15298SOL    HW247902   7.506   2.679   9.114
15299SOL     OW47903   6.721   9.638   6.203
15299SOL    HW147904   6.691   9.648   6.293
15299SOL    HW247905   6.643   9.610   6.154
15300SOL     OW47906   3.175   3.293  10.572
15300SOL    HW147907   3.150   3.277  10.481
15300SOL    HW247908   3.202   3.384  10.574
15301SOL     OW47909   6.474   7.989   8.592
15301SOL    HW147910   6.494   8.032   8.675
15301SOL    HW247911   6.533   7.914   8.589
15302SOL     OW47912   8.813   8.612   6.968
15302SOL    HW147913   8.798   8.706   6.979
15302SOL    HW247914   8.885   8.606   6.904
15303SOL     OW47915   9.312   1.356   7.185
15303SOL    HW147916   9.346   1.385   7.269
15303SOL    HW247917   9.288   1.437   7.140
15304SOL     OW47918  10.652   4.903   4.708
15304SOL    HW147919  10.690   4.946   4.784
15304SOL    HW247920  10.719   4.911   4.640
15305SOL     OW47921   3.890   8.390   3.523
15305SOL    HW147922   3.873   8.358   3.611
15305SOL    HW247923   3.985   8.401   3.519
15306SOL     OW47924  11.073   8.448   1.880
15306SOL    HW147925  11.020   8.439   1.959
15306SOL    HW247926  11.054   8.369   1.829
15307SOL     OW47927   4.190   2.379   9.074
15307SOL    HW147928   4.165   2.439   9.003
15307SOL    HW247929   4.249   2.316   9.032
15308SOL     OW47930   1.798   1.802   6.343
15308SOL    HW147931   1.849   1.768   6.416
15308SOL    HW247932   1.837   1.887   6.324
15309SOL     OW47933   0.319   8.769   6.164
15309SOL    HW147934   0.389   8.704   6.155
15309SOL    HW247935   0.340   8.836   6.099
15310SOL     OW47936  10.786   0.547  10.164
15310SOL    HW147937  10.870   0.502  10.174
15310SOL    HW247938  10.799   0.631  10.206
15311SOL     OW47939   2.117   8.757   5.885
15311SOL    HW147940   2.057   8.798   5.947
15311SOL    HW247941   2.190   8.818   5.878
15312SOL     OW47942   7.114   8.043   3.662
15312SOL    HW147943   7.100   8.129   3.622
15312SOL    HW247944   7.047   7.987   3.622
15313SOL     OW47945  11.033   5.962   6.064
15313SOL    HW147946  10.961   5.997   6.011
15313SOL    HW247947  11.012   5.869   6.074
15314SOL     OW47948   5.463   8.545   5.753
15314SOL    HW147949   5.510   8.464   5.772
15314SOL    HW247950   5.481   8.602   5.827
15315SOL     OW47951  10.667   0.966   8.579
15315SOL    HW147952  10.627   0.898   8.633
15315SOL    HW247953  10.610   0.972   8.502
15316SOL     OW47954   2.781   7.715   6.809
15316SOL    HW147955   2.851   7.711   6.874
15316SOL    HW247956   2.825   7.698   6.725
15317SOL     OW47957   3.992   2.703   2.579
15317SOL    HW147958   3.964   2.773   2.520
15317SOL    HW247959   3.992   2.624   2.524
15318SOL     OW47960   6.722   0.545   7.030
15318SOL    HW147961   6.781   0.484   6.985
15318SOL    HW247962   6.694   0.606   6.962
15319SOL     OW47963   8.368   2.011   6.624
15319SOL    HW147964   8.454   2.030   6.661
15319SOL    HW247965   8.351   2.084   6.564
15320SOL     OW47966   8.756   2.963   9.655
15320SOL    HW147967   8.699   3.023   9.703
15320SOL    HW247968   8.744   2.987   9.563
15321SOL     OW47969   6.937   1.491   0.428
15321SOL    HW147970   6.906   1.446   0.349
15321SOL    HW247971   6.884   1.570   0.433
15322SOL     OW47972   3.973   4.766   7.348
15322SOL    HW147973   3.883   4.788   7.325
15322SOL    HW247974   4.000   4.835   7.408
15323SOL     OW47975  11.001   6.962   8.537
15323SOL    HW147976  11.041   7.041   8.500
15323SOL    HW247977  11.028   6.891   8.478
15324SOL     OW47978   5.543  10.996   0.676
15324SOL    HW147979   5.500  10.953   0.750
15324SOL    HW247980   5.509  11.086   0.677
15325SOL     OW47981   5.729  10.458   3.355
15325SOL    HW147982   5.787  10.466   3.279
15325SOL    HW247983   5.738  10.367   3.382
15326SOL     OW47984   9.255   4.370   3.773
15326SOL    HW147985   9.295   4.301   3.826
15326SOL    HW247986   9.165   4.376   3.804
15327SOL     OW47987   5.663   3.100   9.128
15327SOL    HW147988   5.687   3.191   9.143
15327SOL    HW247989   5.569   3.096   9.144
15328SOL     OW47990   2.976  10.758   8.396
15328SOL    HW147991   2.947  10.676   8.355
15328SOL    HW247992   3.067  10.768   8.366
15329SOL     OW47993   0.754   3.502   2.390
15329SOL    HW147994   0.662   3.480   2.404
15329SOL    HW247995   0.801   3.423   2.417
15330SOL     OW47996   1.711   8.344   5.238
15330SOL    HW147997   1.632   8.384   5.202
15330SOL    HW247998   1.680   8.288   5.309
15331SOL     OW47999   6.231   0.150   5.245
15331SOL    HW148000   6.156   0.201   5.214
15331SOL    HW248001   6.216   0.062   5.209
15332SOL     OW48002   3.878   2.850   0.798
15332SOL    HW148003   3.953   2.790   0.798
15332SOL    HW248004   3.855   2.859   0.705
15333SOL     OW48005   8.345   2.697  10.279
15333SOL    HW148006   8.440   2.701  10.287
15333SOL    HW248007   8.315   2.663  10.363
15334SOL     OW48008   4.159  10.313   8.559
15334SOL    HW148009   4.194  10.229   8.590
15334SOL    HW248010   4.211  10.334   8.481
15335SOL     OW48011   6.371   7.358   9.063
15335SOL    HW148012   6.338   7.367   9.152
15335SOL    HW248013   6.466   7.366   9.072
15336SOL     OW48014   6.255   0.614   3.662
15336SOL    HW148015   6.318   0.654   3.721
15336SOL    HW248016   6.267   0.520   3.675
15337SOL     OW48017   6.308   8.725  10.209
15337SOL    HW148018   6.380   8.746  10.149
15337SOL    HW248019   6.351   8.698  10.290
15338SOL     OW48020   1.783   1.223   8.397
15338SOL    HW148021   1.697   1.234   8.357
15338SOL    HW248022   1.784   1.132   8.427
15339SOL     OW48023   4.177   1.259   4.063
15339SOL    HW148024   4.175   1.206   4.142
15339SOL    HW248025   4.162   1.196   3.992
15340SOL     OW48026   7.544  10.363   3.862
15340SOL    HW148027   7.580  10.309   3.791
15340SOL    HW248028   7.617  10.371   3.924
15341SOL     OW48029   7.879  10.882   4.723
15341SOL    HW148030   7.934  10.956   4.697
15341SOL    HW248031   7.813  10.876   4.654
15342SOL     OW48032   6.038   4.718   9.515
15342SOL    HW148033   5.948   4.747   9.527
15342SOL    HW248034   6.042   4.689   9.424
15343SOL     OW48035   4.970   2.573   1.805
15343SOL    HW148036   4.990   2.488   1.765
15343SOL    HW248037   4.991   2.636   1.736
15344SOL     OW48038   2.492   3.728   8.121
15344SOL    HW148039   2.478   3.816   8.155
15344SOL    HW248040   2.483   3.670   8.197
15345SOL     OW48041   5.604   0.968   3.418
15345SOL    HW148042   5.668   0.901   3.392
15345SOL    HW248043   5.522   0.939   3.379
15346SOL     OW48044   6.780   8.740   1.996
15346SOL    HW148045   6.844   8.789   1.945
15346SOL    HW248046   6.831   8.673   2.041
15347SOL     OW48047   0.117   2.216   9.492
15347SOL    HW148048   0.143   2.254   9.576
15347SOL    HW248049   0.199   2.191   9.450
15348SOL     OW48050   1.525   1.165   6.415
15348SOL    HW148051   1.579   1.126   6.346
15348SOL    HW248052   1.586   1.220   6.464
15349SOL     OW48053   0.199   0.631   3.644
15349SOL    HW148054   0.128   0.650   3.705
15349SOL    HW248055   0.276   0.618   3.699
15350SOL     OW48056   5.615   9.013   7.252
15350SOL    HW148057   5.696   8.972   7.281
15350SOL    HW248058   5.562   9.022   7.331
15351SOL     OW48059   0.419   9.190   0.632
15351SOL    HW148060   0.445   9.107   0.672
15351SOL    HW248061   0.499   9.242   0.632
15352SOL     OW48062   1.782   9.667   4.047
15352SOL    HW148063   1.717   9.602   4.020
15352SOL    HW248064   1.848   9.616   4.094
15353SOL     OW48065   7.632   2.411  10.164
15353SOL    HW148066   7.561   2.465  10.129
15353SOL    HW248067   7.617   2.324  10.125
15354SOL     OW48068   5.068  10.400   2.005
15354SOL    HW148069   5.130  10.472   1.993
15354SOL    HW248070   5.106  10.347   2.075
15355SOL     OW48071   5.496   2.997   2.807
15355SOL    HW148072   5.494   2.983   2.712
15355SOL    HW248073   5.538   2.918   2.842
15356SOL     OW48074   4.173   0.453   5.407
15356SOL    HW148075   4.106   0.397   5.368
15356SOL    HW248076   4.238   0.391   5.442
15357SOL     OW48077   7.156   8.205   0.145
15357SOL    HW148078   7.167   8.285   0.095
15357SOL    HW248079   7.234   8.153   0.125
15358SOL     OW48080   6.984  10.540   0.009
15358SOL    HW148081   6.925  10.605   0.049
15358SOL    HW248082   6.966  10.546  -0.085
15359SOL     OW48083   2.212   0.987   8.847
15359SOL    HW148084   2.221   0.994   8.752
15359SOL    HW248085   2.125   1.023   8.865
15360SOL     OW48086   0.864   9.683   7.335
15360SOL    HW148087   0.897   9.771   7.317
15360SOL    HW248088   0.825   9.655   7.252
15361SOL     OW48089   4.116   0.633   2.366
15361SOL    HW148090   4.089   0.562   2.424
15361SOL    HW248091   4.063   0.708   2.393
15362SOL     OW48092   8.221   6.482   1.552
15362SOL    HW148093   8.246   6.490   1.460
15362SOL    HW248094   8.175   6.563   1.572
15363SOL     OW48095   6.696  10.107   5.220
15363SOL    HW148096   6.779  10.129   5.178
15363SOL    HW248097   6.721  10.068   5.304
15364SOL     OW48098   2.367  11.018   0.040
15364SOL    HW148099   2.399  11.105   0.016
15364SOL    HW248100   2.410  10.959  -0.022
15365SOL     OW48101   9.001   0.757   2.693
15365SOL    HW148102   8.955   0.741   2.610
15365SOL    HW248103   8.984   0.849   2.713
15366SOL     OW48104   0.287   2.766   9.365
15366SOL    HW148105   0.317   2.856   9.372
15366SOL    HW248106   0.200   2.766   9.405
15367SOL     OW48107   2.668   1.040  10.800
15367SOL    HW148108   2.718   1.077  10.727
15367SOL    HW248109   2.587   1.008  10.760
15368SOL     OW48110   2.790   0.333   8.316
15368SOL    HW148111   2.881   0.344   8.288
15368SOL    HW248112   2.768   0.243   8.290
15369SOL     OW48113   4.337   6.257   4.304
15369SOL    HW148114   4.292   6.203   4.239
15369SOL    HW248115   4.363   6.195   4.372
15370SOL     OW48116  10.471   2.940  10.782
15370SOL    HW148117  10.396   2.905  10.830
15370SOL    HW248118  10.438   3.020  10.741
15371SOL     OW48119   6.316   1.433   6.607
15371SOL    HW148120   6.234   1.419   6.654
15371SOL    HW248121   6.366   1.493   6.662
15372SOL     OW48122   7.186   9.137   3.185
15372SOL    HW148123   7.263   9.133   3.128
15372SOL    HW248124   7.182   9.228   3.214
15373SOL     OW48125   0.194   4.381   0.472
15373SOL    HW148126   0.266   4.394   0.410
15373SOL    HW248127   0.233   4.396   0.558
15374SOL     OW48128   3.614   0.647   1.842
15374SOL    HW148129   3.697   0.694   1.839
15374SOL    HW248130   3.547   0.715   1.831
15375SOL     OW48131   6.477   0.137  10.705
15375SOL    HW148132   6.566   0.136  10.668
15375SOL    HW248133   6.490   0.149  10.799
15376SOL     OW48134   2.652   4.699   6.137
15376SOL    HW148135   2.582   4.679   6.075
15376SOL    HW248136   2.732   4.687   6.086
15377SOL     OW48137   4.406   3.979   2.947
15377SOL    HW148138   4.482   4.027   2.914
15377SOL    HW248139   4.379   4.026   3.025
15378SOL     OW48140   5.861   9.537   6.384
15378SOL    HW148141   5.786   9.479   6.393
15378SOL    HW248142   5.825   9.618   6.350
15379SOL     OW48143   9.577   9.415   7.368
15379SOL    HW148144   9.665   9.452   7.380
15379SOL    HW248145   9.568   9.406   7.273
15380SOL     OW48146   5.242  10.581   1.699
15380SOL    HW148147   5.184  10.638   1.648
15380SOL    HW248148   5.281  10.639   1.764
15381SOL     OW48149   3.829   6.968   7.258
15381SOL    HW148150   3.799   6.947   7.169
15381SOL    HW248151   3.753   6.951   7.314
15382SOL     OW48152   8.671   4.985   1.440
15382SOL    HW148153   8.638   5.023   1.358
15382SOL    HW248154   8.639   4.894   1.439
15383SOL     OW48155   7.424   5.728   7.988
15383SOL    HW148156   7.451   5.734   7.896
15383SOL    HW248157   7.367   5.651   7.990
15384SOL     OW48158   3.769   0.745   4.730
15384SOL    HW148159   3.845   0.797   4.758
15384SOL    HW248160   3.806   0.659   4.707
15385SOL     OW48161   0.999   9.015   1.305
15385SOL    HW148162   0.981   8.940   1.362
15385SOL    HW248163   0.977   9.091   1.358
15386SOL     OW48164   3.278   0.129   7.415
15386SOL    HW148165   3.236   0.107   7.332
15386SOL    HW248166   3.277   0.224   7.418
15387SOL     OW48167   5.327   4.661   0.019
15387SOL    HW148168   5.391   4.593  -0.004
15387SOL    HW248169   5.313   4.709  -0.062
15388SOL     OW48170   1.936   6.124   6.276
15388SOL    HW148171   1.944   6.039   6.233
15388SOL    HW248172   2.026   6.157   6.281
15389SOL     OW48173   6.390   4.676   0.137
15389SOL    HW148174   6.474   4.666   0.182
15389SOL    HW248175   6.409   4.735   0.065
15390SOL     OW48176   7.762   8.071   7.947
15390SOL    HW148177   7.778   8.071   8.041
15390SOL    HW248178   7.773   8.162   7.920
15391SOL     OW48179   9.495  10.962   6.845
15391SOL    HW148180   9.420  11.014   6.873
15391SOL    HW248181   9.570  11.022   6.853
15392SOL     OW48182   3.133   0.936   2.767
15392SOL    HW148183   3.040   0.957   2.762
15392SOL    HW248184   3.144   0.891   2.851
15393SOL     OW48185   7.689   1.412   5.436
15393SOL    HW148186   7.688   1.327   5.481
15393SOL    HW248187   7.635   1.469   5.490
15394SOL     OW48188   4.920   8.035   3.323
15394SOL    HW148189   5.014   8.052   3.327
15394SOL    HW248190   4.883   8.112   3.281
15395SOL     OW48191   8.476   0.437   7.077
15395SOL    HW148192   8.528   0.363   7.109
15395SOL    HW248193   8.535   0.482   7.016
15396SOL     OW48194   2.943   4.523   7.780
15396SOL    HW148195   2.893   4.604   7.788
15396SOL    HW248196   2.921   4.473   7.858
15397SOL     OW48197   5.541   2.855   6.051
15397SOL    HW148198   5.541   2.824   5.960
15397SOL    HW248199   5.597   2.932   6.050
15398SOL     OW48200   3.971   0.091   2.107
15398SOL    HW148201   4.065   0.076   2.100
15398SOL    HW248202   3.952   0.155   2.038
15399SOL     OW48203   2.475   1.254   7.569
15399SOL    HW148204   2.548   1.316   7.573
15399SOL    HW248205   2.465   1.222   7.658
15400SOL     OW48206   4.570   9.365   1.712
15400SOL    HW148207   4.644   9.329   1.761
15400SOL    HW248208   4.568   9.313   1.631
15401SOL     OW48209   2.427   9.939   5.066
15401SOL    HW148210   2.453   9.871   5.003
15401SOL    HW248211   2.426   9.894   5.150
15402SOL     OW48212   6.461   5.265   2.410
15402SOL    HW148213   6.529   5.330   2.392
15402SOL    HW248214   6.458   5.211   2.331
15403SOL     OW48215   1.152   1.069   6.347
15403SOL    HW148216   1.059   1.071   6.368
15403SOL    HW248217   1.160   1.003   6.278
15404SOL     OW48218   5.181   1.431   2.659
15404SOL    HW148219   5.155   1.376   2.733
15404SOL    HW248220   5.234   1.500   2.697
15405SOL     OW48221   8.741   2.078   3.313
15405SOL    HW148222   8.651   2.105   3.294
15405SOL    HW248223   8.757   2.107   3.402
15406SOL     OW48224   5.902   6.837   1.062
15406SOL    HW148225   5.840   6.848   1.134
15406SOL    HW248226   5.968   6.904   1.076
15407SOL     OW48227   2.425   8.043   1.343
15407SOL    HW148228   2.494   7.982   1.315
15407SOL    HW248229   2.464   8.129   1.331
15408SOL     OW48230   4.681   4.585   4.263
15408SOL    HW148231   4.670   4.531   4.185
15408SOL    HW248232   4.747   4.539   4.315
15409SOL     OW48233   5.997   0.205   3.722
15409SOL    HW148234   5.936   0.234   3.654
15409SOL    HW248235   5.990   0.109   3.720
15410SOL     OW48236   1.314   9.748   6.651
15410SOL    HW148237   1.309   9.727   6.557
15410SOL    HW248238   1.324   9.843   6.654
15411SOL     OW48239   2.077   6.241   3.622
15411SOL    HW148240   2.146   6.246   3.688
15411SOL    HW248241   2.098   6.163   3.571
15412SOL     OW48242   8.402   0.647   7.637
15412SOL    HW148243   8.409   0.602   7.553
15412SOL    HW248244   8.466   0.603   7.693
15413SOL     OW48245   7.347  10.689   9.286
15413SOL    HW148246   7.270  10.728   9.243
15413SOL    HW248247   7.386  10.633   9.218
15414SOL     OW48248   1.258   1.739   3.585
15414SOL    HW148249   1.290   1.752   3.674
15414SOL    HW248250   1.281   1.648   3.564
15415SOL     OW48251   8.345   0.423  11.001
15415SOL    HW148252   8.435   0.409  10.969
15415SOL    HW248253   8.344   0.384  11.088
15416SOL     OW48254   1.834  10.474   6.674
15416SOL    HW148255   1.801  10.531   6.604
15416SOL    HW248256   1.881  10.404   6.628
15417SOL     OW48257   7.464   3.251   2.104
15417SOL    HW148258   7.376   3.215   2.094
15417SOL    HW248259   7.473   3.312   2.031
15418SOL     OW48260   9.376   8.673   8.950
15418SOL    HW148261   9.365   8.735   8.878
15418SOL    HW248262   9.457   8.699   8.993
15419SOL     OW48263   8.940   0.137   8.241
15419SOL    HW148264   8.904   0.224   8.229
15419SOL    HW248265   8.868   0.078   8.219
15420SOL     OW48266   0.380   0.874   3.482
15420SOL    HW148267   0.470   0.887   3.454
15420SOL    HW248268   0.350   0.798   3.432
15421SOL     OW48269   2.280   5.015   6.449
15421SOL    HW148270   2.350   5.057   6.399
15421SOL    HW248271   2.325   4.947   6.499
15422SOL     OW48272   2.197   9.585   0.948
15422SOL    HW148273   2.276   9.532   0.934
15422SOL    HW248274   2.224   9.652   1.010
15423SOL     OW48275   2.547   0.741  10.994
15423SOL    HW148276   2.468   0.693  10.970
15423SOL    HW248277   2.612   0.714  10.929
15424SOL     OW48278   5.957   7.498   8.556
15424SOL    HW148279   5.902   7.550   8.614
15424SOL    HW248280   5.964   7.550   8.476
15425SOL     OW48281   0.498   8.226   3.889
15425SOL    HW148282   0.511   8.133   3.911
15425SOL    HW248283   0.522   8.273   3.969
15426SOL     OW48284   3.897   7.657   4.306
15426SOL    HW148285   3.894   7.741   4.351
15426SOL    HW248286   3.863   7.594   4.370
15427SOL     OW48287   2.317   0.854   1.760
15427SOL    HW148288   2.297   0.860   1.853
15427SOL    HW248289   2.329   0.944   1.732
15428SOL     OW48290   5.547   7.565   3.286
15428SOL    HW148291   5.591   7.485   3.315
15428SOL    HW248292   5.492   7.590   3.360
15429SOL     OW48293   0.403   0.367   2.973
15429SOL    HW148294   0.427   0.446   3.021
15429SOL    HW248295   0.466   0.301   3.002
15430SOL     OW48296   3.228   5.803   3.406
15430SOL    HW148297   3.189   5.812   3.319
15430SOL    HW248298   3.260   5.713   3.409
15431SOL     OW48299   3.284   5.944   1.819
15431SOL    HW148300   3.328   5.877   1.766
15431SOL    HW248301   3.314   6.027   1.781
15432SOL     OW48302   0.713   7.333   7.364
15432SOL    HW148303   0.781   7.336   7.431
15432SOL    HW248304   0.638   7.293   7.408
15433SOL     OW48305  10.361   6.487  10.146
15433SOL    HW148306  10.306   6.564  10.139
15433SOL    HW248307  10.312   6.419  10.099
15434SOL     OW48308   6.327   1.610   4.889
15434SOL    HW148309   6.252   1.652   4.848
15434SOL    HW248310   6.305   1.517   4.889
15435SOL     OW48311  10.217   2.711   8.354
15435SOL    HW148312  10.132   2.698   8.313
15435SOL    HW248313  10.206   2.789   8.407
15436SOL     OW48314   9.160   1.833   0.385
15436SOL    HW148315   9.071   1.800   0.396
15436SOL    HW248316   9.214   1.754   0.377
15437SOL     OW48317   1.665   9.195   5.634
15437SOL    HW148318   1.672   9.228   5.544
15437SOL    HW248319   1.585   9.143   5.634
15438SOL     OW48320   3.126   9.094   6.558
15438SOL    HW148321   3.194   9.135   6.505
15438SOL    HW248322   3.174   9.051   6.629
15439SOL     OW48323  10.802   2.142   3.174
15439SOL    HW148324  10.731   2.194   3.211
15439SOL    HW248325  10.770   2.116   3.087
15440SOL     OW48326   5.836   5.346   9.453
15440SOL    HW148327   5.897   5.420   9.456
15440SOL    HW248328   5.889   5.270   9.477
15441SOL     OW48329   8.175  10.956   4.964
15441SOL    HW148330   8.123  11.027   5.002
15441SOL    HW248331   8.161  10.965   4.869
15442SOL     OW48332   2.201   6.974   5.049
15442SOL    HW148333   2.169   6.945   4.963
15442SOL    HW248334   2.280   6.921   5.063
15443SOL     OW48335   6.663   4.613   4.298
15443SOL    HW148336   6.642   4.547   4.364
15443SOL    HW248337   6.739   4.577   4.252
15444SOL     OW48338   1.814   5.568   8.243
15444SOL    HW148339   1.738   5.620   8.269
15444SOL    HW248340   1.778   5.501   8.185
15445SOL     OW48341   6.014   7.613   6.688
15445SOL    HW148342   6.078   7.549   6.719
15445SOL    HW248343   5.944   7.559   6.650
15446SOL     OW48344   2.596   7.470   1.876
15446SOL    HW148345   2.567   7.396   1.929
15446SOL    HW248346   2.662   7.514   1.929
15447SOL     OW48347   7.448   6.538   4.788
15447SOL    HW148348   7.362   6.575   4.806
15447SOL    HW248349   7.477   6.582   4.708
15448SOL     OW48350   5.211   8.972   3.716
15448SOL    HW148351   5.155   8.987   3.792
15448SOL    HW248352   5.162   8.909   3.662
15449SOL     OW48353   5.021  10.365   4.527
15449SOL    HW148354   5.024  10.432   4.458
15449SOL    HW248355   5.056  10.408   4.604
15450SOL     OW48356   4.789   8.792   8.125
15450SOL    HW148357   4.789   8.887   8.118
15450SOL    HW248358   4.874   8.765   8.089
15451SOL     OW48359  10.499   9.446   2.243
15451SOL    HW148360  10.404   9.455   2.238
15451SOL    HW248361  10.515   9.400   2.325
15452SOL     OW48362   5.230   0.184   4.618
15452SOL    HW148363   5.235   0.122   4.691
15452SOL    HW248364   5.169   0.143   4.556
15453SOL     OW48365   7.228   0.699   7.774
15453SOL    HW148366   7.251   0.644   7.849
15453SOL    HW248367   7.157   0.755   7.805
15454SOL     OW48368   3.524   4.145   7.786
15454SOL    HW148369   3.453   4.105   7.836
15454SOL    HW248370   3.548   4.223   7.836
15455SOL     OW48371   6.119   2.196   5.961
15455SOL    HW148372   6.209   2.226   5.976
15455SOL    HW248373   6.064   2.269   5.987
15456SOL     OW48374   6.107   0.489   7.931
15456SOL    HW148375   6.109   0.394   7.917
15456SOL    HW248376   6.117   0.526   7.843
15457SOL     OW48377   6.300   4.212   9.202
15457SOL    HW148378   6.301   4.270   9.278
15457SOL    HW248379   6.332   4.128   9.235
15458SOL     OW48380   4.599   2.480   5.156
15458SOL    HW148381   4.694   2.471   5.150
15458SOL    HW248382   4.575   2.534   5.080
15459SOL     OW48383   0.778   3.805   5.766
15459SOL    HW148384   0.821   3.836   5.686
15459SOL    HW248385   0.688   3.788   5.739
15460SOL     OW48386   8.286   4.752   9.953
15460SOL    HW148387   8.353   4.684   9.966
15460SOL    HW248388   8.212   4.723  10.006
15461SOL     OW48389   1.886   2.288  10.901
15461SOL    HW148390   1.932   2.371  10.906
15461SOL    HW248391   1.800   2.310  10.865
15462SOL     OW48392   5.758   5.086   0.536
15462SOL    HW148393   5.743   4.996   0.504
15462SOL    HW248394   5.679   5.107   0.586
15463SOL     OW48395   9.004   8.218   6.476
15463SOL    HW148396   9.063   8.262   6.536
15463SOL    HW248397   9.059   8.195   6.401
15464SOL     OW48398   6.695   8.028   9.848
15464SOL    HW148399   6.732   8.039   9.935
15464SOL    HW248400   6.771   8.016   9.791
15465SOL     OW48401   4.613   5.597   3.385
15465SOL    HW148402   4.595   5.525   3.446
15465SOL    HW248403   4.532   5.647   3.381
15466SOL     OW48404   5.477   2.215  10.256
15466SOL    HW148405   5.549   2.183  10.311
15466SOL    HW248406   5.508   2.201  10.166
15467SOL     OW48407   4.513   4.038   8.368
15467SOL    HW148408   4.596   4.041   8.320
15467SOL    HW248409   4.461   4.108   8.330
15468SOL     OW48410  10.585  10.802  10.734
15468SOL    HW148411  10.673  10.771  10.710
15468SOL    HW248412  10.546  10.830  10.651
15469SOL     OW48413   7.439   1.372   8.985
15469SOL    HW148414   7.526   1.379   9.024
15469SOL    HW248415   7.380   1.407   9.051
15470SOL     OW48416   3.558   2.221   7.915
15470SOL    HW148417   3.524   2.219   8.004
15470SOL    HW248418   3.629   2.285   7.917
15471SOL     OW48419   5.330   3.933   9.270
15471SOL    HW148420   5.280   3.857   9.240
15471SOL    HW248421   5.271   3.978   9.330
15472SOL     OW48422   4.059   9.310   0.656
15472SOL    HW148423   4.135   9.365   0.675
15472SOL    HW248424   4.005   9.315   0.735
15473SOL     OW48425   4.017   1.958   4.113
15473SOL    HW148426   4.086   1.896   4.089
15473SOL    HW248427   3.945   1.902   4.144
15474SOL     OW48428   1.184   2.085   4.860
15474SOL    HW148429   1.214   2.089   4.951
15474SOL    HW248430   1.224   2.005   4.825
15475SOL     OW48431   5.794   0.725   4.788
15475SOL    HW148432   5.826   0.653   4.734
15475SOL    HW248433   5.857   0.730   4.860
15476SOL     OW48434   5.672   6.904   8.939
15476SOL    HW148435   5.736   6.956   8.988
15476SOL    HW248436   5.693   6.921   8.847
15477SOL     OW48437   7.373   2.450   0.540
15477SOL    HW148438   7.348   2.426   0.451
15477SOL    HW248439   7.296   2.430   0.593
15478SOL     OW48440   9.116   2.529   6.600
15478SOL    HW148441   9.075   2.596   6.546
15478SOL    HW248442   9.207   2.558   6.610
15479SOL     OW48443  10.116   7.586   5.125
15479SOL    HW148444  10.062   7.615   5.199
15479SOL    HW248445  10.055   7.583   5.051
15480SOL     OW48446   6.112   9.072   5.387
15480SOL    HW148447   6.152   9.040   5.468
15480SOL    HW248448   6.170   9.041   5.317
15481SOL     OW48449   1.502   7.125   9.674
15481SOL    HW148450   1.525   7.218   9.672
15481SOL    HW248451   1.584   7.080   9.652
15482SOL     OW48452   5.777   6.788   7.373
15482SOL    HW148453   5.822   6.802   7.456
15482SOL    HW248454   5.756   6.876   7.342
15483SOL     OW48455  10.533   6.045   5.740
15483SOL    HW148456  10.516   6.001   5.656
15483SOL    HW248457  10.595   5.987   5.785
15484SOL     OW48458   4.833   3.129   6.233
15484SOL    HW148459   4.881   3.073   6.294
15484SOL    HW248460   4.836   3.082   6.149
15485SOL     OW48461  10.295   3.949   5.189
15485SOL    HW148462  10.246   3.977   5.266
15485SOL    HW248463  10.324   3.860   5.210
15486SOL     OW48464   8.305   9.694   1.457
15486SOL    HW148465   8.312   9.599   1.449
15486SOL    HW248466   8.256   9.721   1.379
15487SOL     OW48467   0.722   8.151  10.391
15487SOL    HW148468   0.727   8.243  10.415
15487SOL    HW248469   0.634   8.140  10.355
15488SOL     OW48470   7.448   2.325   9.210
15488SOL    HW148471   7.510   2.334   9.137
15488SOL    HW248472   7.498   2.280   9.278
15489SOL     OW48473   2.360  10.137  10.383
15489SOL    HW148474   2.341  10.053  10.426
15489SOL    HW248475   2.448  10.126  10.347
15490SOL     OW48476   4.014   1.469   6.143
15490SOL    HW148477   3.977   1.402   6.200
15490SOL    HW248478   4.069   1.420   6.081
15491SOL     OW48479   0.361   4.897   5.411
15491SOL    HW148480   0.392   4.920   5.498
15491SOL    HW248481   0.291   4.833   5.426
15492SOL     OW48482   5.749   9.123   2.897
15492SOL    HW148483   5.734   9.090   2.808
15492SOL    HW248484   5.728   9.216   2.891
15493SOL     OW48485   5.293  10.772   1.874
15493SOL    HW148486   5.242  10.846   1.842
15493SOL    HW248487   5.252  10.749   1.957
15494SOL     OW48488   9.454   1.445   3.832
15494SOL    HW148489   9.363   1.461   3.807
15494SOL    HW248490   9.498   1.422   3.750
15495SOL     OW48491   0.524   6.824   2.275
15495SOL    HW148492   0.575   6.864   2.204
15495SOL    HW248493   0.449   6.784   2.230
15496SOL     OW48494   6.743   9.228   9.170
15496SOL    HW148495   6.682   9.202   9.239
15496SOL    HW248496   6.794   9.299   9.208
15497SOL     OW48497   8.964   7.079   8.192
15497SOL    HW148498   8.988   7.025   8.267
15497SOL    HW248499   9.043   7.081   8.138
15498SOL     OW48500   1.551   0.706   6.237
15498SOL    HW148501   1.553   0.695   6.142
15498SOL    HW248502   1.491   0.778   6.252
15499SOL     OW48503   1.916   9.997   2.142
15499SOL    HW148504   1.905  10.092   2.145
15499SOL    HW248505   1.985   9.979   2.206
15500SOL     OW48506   6.813   0.502   6.168
15500SOL    HW148507   6.859   0.504   6.252
15500SOL    HW248508   6.882   0.486   6.103
15501SOL     OW48509   4.667   5.255   5.366
15501SOL    HW148510   4.738   5.230   5.307
15501SOL    HW248511   4.656   5.349   5.352
15502SOL     OW48512   8.445   9.315   6.530
15502SOL    HW148513   8.397   9.392   6.500
15502SOL    HW248514   8.529   9.319   6.483
15503SOL     OW48515   7.647   1.334   6.894
15503SOL    HW148516   7.689   1.271   6.835
15503SOL    HW248517   7.674   1.306   6.981
15504SOL     OW48518   1.322   3.816   4.600
15504SOL    HW148519   1.389   3.828   4.667
15504SOL    HW248520   1.371   3.796   4.520
15505SOL     OW48521   7.240  10.858   7.850
15505SOL    HW148522   7.157  10.905   7.858
15505SOL    HW248523   7.260  10.829   7.939
15506SOL     OW48524   5.934   9.855   4.808
15506SOL    HW148525   5.932   9.776   4.753
15506SOL    HW248526   5.848   9.857   4.850
15507SOL     OW48527   5.281   9.707   2.520
15507SOL    HW148528   5.196   9.716   2.562
15507SOL    HW248529   5.339   9.675   2.589
15508SOL     OW48530   7.649   5.293   3.596
15508SOL    HW148531   7.684   5.365   3.648
15508SOL    HW248532   7.701   5.294   3.516
15509SOL     OW48533   0.082   1.698   4.307
15509SOL    HW148534   0.078   1.679   4.213
15509SOL    HW248535   0.064   1.614   4.349
15510SOL     OW48536  10.247   0.040   9.603
15510SOL    HW148537  10.281   0.032   9.692
15510SOL    HW248538  10.204   0.125   9.601
15511SOL     OW48539   5.848   3.978   3.147
15511SOL    HW148540   5.773   3.969   3.088
15511SOL    HW248541   5.915   4.021   3.094
15512SOL     OW48542   4.060  11.013   4.501
15512SOL    HW148543   4.004  11.077   4.457
15512SOL    HW248544   4.008  10.933   4.503
15513SOL     OW48545   6.142   5.782   4.592
15513SOL    HW148546   6.234   5.757   4.592
15513SOL    HW248547   6.131   5.834   4.512
15514SOL     OW48548   1.806   4.166   4.583
15514SOL    HW148549   1.862   4.111   4.638
15514SOL    HW248550   1.731   4.188   4.638
15515SOL     OW48551   5.420   1.814   0.880
15515SOL    HW148552   5.411   1.786   0.971
15515SOL    HW248553   5.468   1.896   0.884
15516SOL     OW48554  10.835  10.274  10.123
15516SOL    HW148555  10.812  10.320  10.203
15516SOL    HW248556  10.752  10.264  10.076
15517SOL     OW48557   4.333   9.864   2.325
15517SOL    HW148558   4.288   9.943   2.295
15517SOL    HW248559   4.307   9.855   2.416
15518SOL     OW48560   3.024   6.424   3.534
15518SOL    HW148561   2.964   6.354   3.561
15518SOL    HW248562   3.111   6.385   3.543
15519SOL     OW48563   4.839   4.088   0.362
15519SOL    HW148564   4.755   4.087   0.408
15519SOL    HW248565   4.878   4.172   0.385
15520SOL     OW48566   3.640   2.521   3.478
15520SOL    HW148567   3.622   2.544   3.387
15520SOL    HW248568   3.564   2.470   3.505
15521SOL     OW48569   8.148   8.458   4.709
15521SOL    HW148570   8.148   8.546   4.747
15521SOL    HW248571   8.236   8.424   4.727
15522SOL     OW48572   1.024   2.680   7.703
15522SOL    HW148573   1.080   2.614   7.662
15522SOL    HW248574   0.936   2.658   7.672
15523SOL     OW48575   2.684   8.221   5.316
15523SOL    HW148576   2.589   8.212   5.319
15523SOL    HW248577   2.711   8.231   5.407
15524SOL     OW48578   1.818  10.733   2.312
15524SOL    HW148579   1.739  10.783   2.292
15524SOL    HW248580   1.873  10.745   2.234
15525SOL     OW48581   4.507   2.092   9.830
15525SOL    HW148582   4.595   2.115   9.859
15525SOL    HW248583   4.451   2.107   9.906
15526SOL     OW48584   3.303   8.955   4.127
15526SOL    HW148585   3.315   8.975   4.034
15526SOL    HW248586   3.220   8.908   4.131
15527SOL     OW48587   0.469   9.819   9.585
15527SOL    HW148588   0.389   9.795   9.538
15527SOL    HW248589   0.442   9.890   9.642
15528SOL     OW48590   4.065   7.539   6.978
15528SOL    HW148591   3.985   7.548   7.030
15528SOL    HW248592   4.128   7.499   7.038
15529SOL     OW48593   8.603   1.898   4.199
15529SOL    HW148594   8.509   1.915   4.189
15529SOL    HW248595   8.642   1.929   4.117
15530SOL     OW48596   4.443   4.748   3.696
15530SOL    HW148597   4.389   4.807   3.748
15530SOL    HW248598   4.468   4.799   3.619
15531SOL     OW48599   7.336   1.194   9.662
15531SOL    HW148600   7.336   1.143   9.743
15531SOL    HW248601   7.245   1.190   9.631
15532SOL     OW48602   4.418   8.331   0.628
15532SOL    HW148603   4.362   8.328   0.705
15532SOL    HW248604   4.500   8.290   0.656
15533SOL     OW48605   1.210   6.471   0.294
15533SOL    HW148606   1.122   6.437   0.278
15533SOL    HW248607   1.207   6.507   0.382
15534SOL     OW48608   6.925  11.047   0.136
15534SOL    HW148609   6.886  11.117   0.188
15534SOL    HW248610   6.949  11.089   0.054
15535SOL     OW48611   6.330   3.553   9.365
15535SOL    HW148612   6.237   3.554   9.387
15535SOL    HW248613   6.372   3.508   9.438
15536SOL     OW48614   8.790   2.657   6.702
15536SOL    HW148615   8.815   2.743   6.669
15536SOL    HW248616   8.707   2.637   6.658
15537SOL     OW48617   0.105   1.656   4.983
15537SOL    HW148618   0.128   1.707   4.906
15537SOL    HW248619   0.160   1.578   4.977
15538SOL     OW48620   4.975   6.539   5.256
15538SOL    HW148621   5.068   6.563   5.262
15538SOL    HW248622   4.972   6.447   5.283
15539SOL     OW48623   4.151   4.953   8.894
15539SOL    HW148624   4.173   4.996   8.811
15539SOL    HW248625   4.198   5.003   8.961
15540SOL     OW48626   7.177   9.001   7.404
15540SOL    HW148627   7.108   8.936   7.388
15540SOL    HW248628   7.252   8.967   7.354
15541SOL     OW48629   6.309   0.654   4.971
15541SOL    HW148630   6.256   0.675   5.048
15541SOL    HW248631   6.284   0.564   4.949
15542SOL     OW48632   1.111   4.944   9.457
15542SOL    HW148633   1.135   5.036   9.463
15542SOL    HW248634   1.185   4.897   9.496
15543SOL     OW48635   4.888   0.363   6.354
15543SOL    HW148636   4.884   0.450   6.315
15543SOL    HW248637   4.845   0.306   6.290
15544SOL     OW48638   9.519   5.861   8.291
15544SOL    HW148639   9.555   5.856   8.379
15544SOL    HW248640   9.596   5.873   8.235
15545SOL     OW48641   5.412   2.042   4.919
15545SOL    HW148642   5.416   2.066   4.826
15545SOL    HW248643   5.320   2.021   4.934
15546SOL     OW48644   9.128   4.586   2.462
15546SOL    HW148645   9.038   4.613   2.479
15546SOL    HW248646   9.174   4.666   2.437
15547SOL     OW48647   4.320   6.732  10.095
15547SOL    HW148648   4.286   6.730  10.005
15547SOL    HW248649   4.415   6.741  10.084
15548SOL     OW48650   5.325  10.368   5.158
15548SOL    HW148651   5.238  10.339   5.130
15548SOL    HW248652   5.381  10.291   5.146
15549SOL     OW48653   0.278   4.294  10.343
15549SOL    HW148654   0.272   4.212  10.392
15549SOL    HW248655   0.362   4.331  10.367
15550SOL     OW48656   3.794   3.452   7.497
15550SOL    HW148657   3.711   3.406   7.485
15550SOL    HW248658   3.846   3.428   7.420
15551SOL     OW48659   7.534   1.578   5.589
15551SOL    HW148660   7.472   1.509   5.612
15551SOL    HW248661   7.557   1.618   5.672
15552SOL     OW48662   4.326   8.863   7.366
15552SOL    HW148663   4.320   8.789   7.304
15552SOL    HW248664   4.354   8.937   7.312
15553SOL     OW48665   4.906   5.600   9.380
15553SOL    HW148666   4.946   5.562   9.458
15553SOL    HW248667   4.975   5.596   9.314
15554SOL     OW48668   3.404   6.511   7.762
15554SOL    HW148669   3.486   6.554   7.786
15554SOL    HW248670   3.381   6.549   7.677
15555SOL     OW48671   6.429   8.737  10.466
15555SOL    HW148672   6.451   8.742  10.559
15555SOL    HW248673   6.514   8.730  10.422
15556SOL     OW48674   6.710   9.361   2.282
15556SOL    HW148675   6.794   9.351   2.327
15556SOL    HW248676   6.711   9.451   2.250
15557SOL     OW48677   4.640   3.017   8.889
15557SOL    HW148678   4.656   2.939   8.835
15557SOL    HW248679   4.727   3.057   8.899
15558SOL     OW48680   1.949   2.726   8.921
15558SOL    HW148681   1.914   2.721   9.010
15558SOL    HW248682   1.976   2.636   8.901
15559SOL     OW48683   7.713   0.618   4.863
15559SOL    HW148684   7.646   0.592   4.926
15559SOL    HW248685   7.790   0.637   4.916
15560SOL     OW48686   7.584   8.808  10.765
15560SOL    HW148687   7.673   8.792  10.734
15560SOL    HW248688   7.534   8.828  10.686
15561SOL     OW48689  10.994   0.264   9.579
15561SOL    HW148690  11.075   0.276   9.529
15561SOL    HW248691  10.928   0.313   9.530
15562SOL     OW48692   6.143   3.997   4.176
15562SOL    HW148693   6.066   4.041   4.212
15562SOL    HW248694   6.173   4.055   4.106
15563SOL     OW48695   4.484   3.318  10.033
15563SOL    HW148696   4.463   3.277  10.117
15563SOL    HW248697   4.431   3.397  10.031
15564SOL     OW48698   6.021   7.105   1.728
15564SOL    HW148699   6.048   7.045   1.798
15564SOL    HW248700   5.983   7.180   1.773
15565SOL     OW48701   2.676   8.333   4.621
15565SOL    HW148702   2.753   8.328   4.564
15565SOL    HW248703   2.603   8.348   4.561
15566SOL     OW48704   2.098   1.077   0.758
15566SOL    HW148705   2.014   1.093   0.715
15566SOL    HW248706   2.162   1.082   0.687
15567SOL     OW48707   4.251   4.871   0.745
15567SOL    HW148708   4.202   4.925   0.683
15567SOL    HW248709   4.338   4.912   0.749
15568SOL     OW48710   3.221   3.508   5.486
15568SOL    HW148711   3.289   3.542   5.428
15568SOL    HW248712   3.264   3.498   5.571
15569SOL     OW48713   6.573   4.434   1.627
15569SOL    HW148714   6.538   4.452   1.714
15569SOL    HW248715   6.625   4.354   1.638
15570SOL     OW48716   1.854   7.329   4.097
15570SOL    HW148717   1.931   7.278   4.073
15570SOL    HW248718   1.788   7.304   4.032
15571SOL     OW48719   4.999   4.832  10.093
15571SOL    HW148720   4.953   4.907  10.057
15571SOL    HW248721   5.062   4.808  10.025
15572SOL     OW48722   1.934   0.507   4.934
15572SOL    HW148723   1.868   0.574   4.918
15572SOL    HW248724   1.965   0.483   4.846
15573SOL     OW48725   8.278  10.698   8.374
15573SOL    HW148726   8.270  10.632   8.442
15573SOL    HW248727   8.252  10.653   8.294
15574SOL     OW48728  10.766   8.228   2.322
15574SOL    HW148729  10.693   8.274   2.282
15574SOL    HW248730  10.803   8.176   2.250
15575SOL     OW48731   5.730  10.150   7.407
15575SOL    HW148732   5.755  10.185   7.492
15575SOL    HW248733   5.731  10.225   7.348
15576SOL     OW48734   5.718  10.292   1.889
15576SOL    HW148735   5.676  10.284   1.803
15576SOL    HW248736   5.661  10.350   1.939
15577SOL     OW48737   5.295   4.106   9.960
15577SOL    HW148738   5.390   4.098   9.964
15577SOL    HW248739   5.279   4.165   9.886
15578SOL     OW48740   0.780   3.831   2.112
15578SOL    HW148741   0.821   3.750   2.143
15578SOL    HW248742   0.847   3.873   2.058
15579SOL     OW48743   8.580   3.446   9.872
15579SOL    HW148744   8.588   3.422   9.964
15579SOL    HW248745   8.628   3.528   9.864
15580SOL     OW48746   5.345   9.065   2.085
15580SOL    HW148747   5.401   8.996   2.049
15580SOL    HW248748   5.405   9.138   2.103
15581SOL     OW48749   6.644   1.488   0.950
15581SOL    HW148750   6.729   1.507   0.910
15581SOL    HW248751   6.580   1.514   0.883
15582SOL     OW48752   4.054  10.160   7.143
15582SOL    HW148753   4.094  10.075   7.163
15582SOL    HW248754   4.118  10.224   7.174
15583SOL     OW48755   2.784   4.746   1.419
15583SOL    HW148756   2.743   4.821   1.376
15583SOL    HW248757   2.834   4.703   1.349
15584SOL     OW48758   3.363   4.194   6.943
15584SOL    HW148759   3.445   4.150   6.920
15584SOL    HW248760   3.320   4.209   6.858
15585SOL     OW48761   6.444   3.483   8.080
15585SOL    HW148762   6.518   3.517   8.129
15585SOL    HW248763   6.367   3.511   8.128
15586SOL     OW48764   2.269   4.015   6.639
15586SOL    HW148765   2.218   4.082   6.595
15586SOL    HW248766   2.353   4.015   6.593
15587SOL     OW48767   6.738   0.092   2.607
15587SOL    HW148768   6.825   0.059   2.585
15587SOL    HW248769   6.678   0.030   2.564
15588SOL     OW48770   4.000   3.138   8.469
15588SOL    HW148771   4.086   3.174   8.492
15588SOL    HW248772   4.015   3.090   8.387
15589SOL     OW48773   2.791   3.734   8.349
15589SOL    HW148774   2.794   3.702   8.258
15589SOL    HW248775   2.813   3.657   8.402
15590SOL     OW48776   0.276   7.507   4.587
15590SOL    HW148777   0.337   7.472   4.651
15590SOL    HW248778   0.330   7.530   4.511
15591SOL     OW48779   6.810  10.842   2.636
15591SOL    HW148780   6.858  10.797   2.566
15591SOL    HW248781   6.864  10.828   2.714
15592SOL     OW48782   6.053  10.228   8.419
15592SOL    HW148783   6.100  10.144   8.421
15592SOL    HW248784   6.107  10.287   8.471
15593SOL     OW48785   4.086  11.076   9.670
15593SOL    HW148786   4.011  11.089   9.728
15593SOL    HW248787   4.147  11.022   9.720
15594SOL     OW48788   1.887   3.224   1.460
15594SOL    HW148789   1.940   3.156   1.503
15594SOL    HW248790   1.805   3.179   1.438
15595SOL     OW48791   7.000   0.809   5.732
15595SOL    HW148792   7.084   0.779   5.697
15595SOL    HW248793   6.979   0.886   5.680
15596SOL     OW48794   4.833   4.404   6.114
15596SOL    HW148795   4.904   4.421   6.052
15596SOL    HW248796   4.769   4.473   6.097
15597SOL     OW48797   7.886   1.616   6.526
15597SOL    HW148798   7.950   1.624   6.455
15597SOL    HW248799   7.939   1.616   6.606
15598SOL     OW48800   4.506   0.042   2.192
15598SOL    HW148801   4.572   0.034   2.122
15598SOL    HW248802   4.514  -0.039   2.242
15599SOL     OW48803   8.495   3.085  10.815
15599SOL    HW148804   8.513   2.997  10.848
15599SOL    HW248805   8.577   3.112  10.774
15600SOL     OW48806   6.031   1.428  10.778
15600SOL    HW148807   6.023   1.411  10.872
15600SOL    HW248808   5.955   1.482  10.757
15601SOL     OW48809   3.062   9.853  10.810
15601SOL    HW148810   2.989   9.792  10.798
15601SOL    HW248811   3.140   9.800  10.793
15602SOL     OW48812  10.086   2.437   6.729
15602SOL    HW148813  10.052   2.393   6.806
15602SOL    HW248814  10.009   2.456   6.676
15603SOL     OW48815   5.242   0.054   9.233
15603SOL    HW148816   5.188   0.064   9.311
15603SOL    HW248817   5.185   0.080   9.160
15604SOL     OW48818   8.663  10.600   8.712
15604SOL    HW148819   8.701  10.514   8.729
15604SOL    HW248820   8.630  10.594   8.622
15605SOL     OW48821   6.541   3.249  11.036
15605SOL    HW148822   6.575   3.174  10.986
15605SOL    HW248823   6.616   3.307  11.046
15606SOL     OW48824   8.885   9.531   9.327
15606SOL    HW148825   8.810   9.526   9.267
15606SOL    HW248826   8.887   9.445   9.370
15607SOL     OW48827   4.350   1.601   9.269
15607SOL    HW148828   4.302   1.595   9.186
15607SOL    HW248829   4.402   1.681   9.261
15608SOL     OW48830   4.961   1.488  10.841
15608SOL    HW148831   4.979   1.533  10.923
15608SOL    HW248832   5.040   1.436  10.824
15609SOL     OW48833   0.485  10.203  10.508
15609SOL    HW148834   0.528  10.229  10.589
15609SOL    HW248835   0.517  10.266  10.443
15610SOL     OW48836   7.394   6.688   3.263
15610SOL    HW148837   7.461   6.624   3.237
15610SOL    HW248838   7.375   6.736   3.182
15611SOL     OW48839   3.192   6.903   5.086
15611SOL    HW148840   3.275   6.941   5.113
15611SOL    HW248841   3.199   6.811   5.112
15612SOL     OW48842   1.800   6.732   1.492
15612SOL    HW148843   1.825   6.791   1.563
15612SOL    HW248844   1.829   6.776   1.412
15613SOL     OW48845   1.774   0.530   5.580
15613SOL    HW148846   1.681   0.513   5.567
15613SOL    HW248847   1.795   0.488   5.663
15614SOL     OW48848   3.828   4.552   8.394
15614SOL    HW148849   3.768   4.556   8.468
15614SOL    HW248850   3.912   4.583   8.428
15615SOL     OW48851   3.978   4.528   7.104
15615SOL    HW148852   4.014   4.589   7.168
15615SOL    HW248853   4.004   4.564   7.019
15616SOL     OW48854   8.863   6.078   5.672
15616SOL    HW148855   8.775   6.105   5.697
15616SOL    HW248856   8.914   6.159   5.671
15617SOL     OW48857   8.029   9.690  10.637
15617SOL    HW148858   8.070   9.744  10.703
15617SOL    HW248859   8.102   9.646  10.593
15618SOL     OW48860   7.650   0.273   4.245
15618SOL    HW148861   7.667   0.282   4.339
15618SOL    HW248862   7.692   0.349   4.205
15619SOL     OW48863   3.849   1.732   7.610
15619SOL    HW148864   3.885   1.659   7.559
15619SOL    HW248865   3.795   1.780   7.547
15620SOL     OW48866   5.378  11.086   8.651
15620SOL    HW148867   5.331  11.149   8.705
15620SOL    HW248868   5.465  11.080   8.690
15621SOL     OW48869   2.808   6.131   7.324
15621SOL    HW148870   2.879   6.194   7.331
15621SOL    HW248871   2.728   6.183   7.330
15622SOL     OW48872   6.445  10.865   9.502
15622SOL    HW148873   6.351  10.857   9.518
15622SOL    HW248874   6.467  10.953   9.533
15623SOL     OW48875   4.025   3.652   8.440
15623SOL    HW148876   4.075   3.682   8.364
15623SOL    HW248877   3.967   3.584   8.405
15624SOL     OW48878   2.744   2.792   7.860
15624SOL    HW148879   2.694   2.809   7.940
15624SOL    HW248880   2.771   2.878   7.829
15625SOL     OW48881   4.704   2.353   6.453
15625SOL    HW148882   4.773   2.391   6.507
15625SOL    HW248883   4.723   2.259   6.452
15626SOL     OW48884   0.385   4.990   3.310
15626SOL    HW148885   0.426   5.029   3.232
15626SOL    HW248886   0.341   4.911   3.277
15627SOL     OW48887   8.365   3.478   3.139
15627SOL    HW148888   8.439   3.536   3.154
15627SOL    HW248889   8.307   3.527   3.081
15628SOL     OW48890   3.909   3.912   8.033
15628SOL    HW148891   3.871   3.825   8.047
15628SOL    HW248892   3.891   3.959   8.114
15629SOL     OW48893   0.602   3.782   4.459
15629SOL    HW148894   0.610   3.836   4.381
15629SOL    HW248895   0.608   3.843   4.532
15630SOL     OW48896  10.244  11.021   5.409
15630SOL    HW148897  10.313  11.054   5.467
15630SOL    HW248898  10.230  10.931   5.437
15631SOL     OW48899   3.820   1.074   8.737
15631SOL    HW148900   3.754   1.078   8.668
15631SOL    HW248901   3.903   1.073   8.689
15632SOL     OW48902   2.464  10.164   9.649
15632SOL    HW148903   2.486  10.255   9.665
15632SOL    HW248904   2.390  10.167   9.588
15633SOL     OW48905   7.456   8.624   1.502
15633SOL    HW148906   7.548   8.647   1.491
15633SOL    HW248907   7.416   8.702   1.539
15634SOL     OW48908   4.702   4.694   1.847
15634SOL    HW148909   4.758   4.659   1.916
15634SOL    HW248910   4.734   4.652   1.767
15635SOL     OW48911   4.787   8.647   3.769
15635SOL    HW148912   4.806   8.587   3.696
15635SOL    HW248913   4.813   8.733   3.736
15636SOL     OW48914   4.841   0.887   3.466
15636SOL    HW148915   4.924   0.927   3.492
15636SOL    HW248916   4.860   0.846   3.381
15637SOL     OW48917   1.520   5.540   8.141
15637SOL    HW148918   1.571   5.493   8.074
15637SOL    HW248919   1.430   5.509   8.129
15638SOL     OW48920   5.711   2.881   9.716
15638SOL    HW148921   5.706   2.886   9.620
15638SOL    HW248922   5.626   2.912   9.746
15639SOL     OW48923   2.168   0.554   7.677
15639SOL    HW148924   2.251   0.538   7.722
15639SOL    HW248925   2.159   0.649   7.676
15640SOL     OW48926   6.443   0.311   9.496
15640SOL    HW148927   6.424   0.368   9.421
15640SOL    HW248928   6.539   0.307   9.499
15641SOL     OW48929  11.057   9.240   6.481
15641SOL    HW148930  11.041   9.164   6.425
15641SOL    HW248931  10.971   9.280   6.492
15642SOL     OW48932   4.358   1.496   8.964
15642SOL    HW148933   4.347   1.566   8.900
15642SOL    HW248934   4.278   1.498   9.016
15643SOL     OW48935   0.856   9.903   1.586
15643SOL    HW148936   0.792   9.837   1.614
15643SOL    HW248937   0.841   9.912   1.492
15644SOL     OW48938   1.486   2.277   1.154
15644SOL    HW148939   1.578   2.266   1.129
15644SOL    HW248940   1.458   2.189   1.180
15645SOL     OW48941   0.626   2.857   6.879
15645SOL    HW148942   0.683   2.781   6.893
15645SOL    HW248943   0.555   2.823   6.824
15646SOL     OW48944  10.905   2.112  10.094
15646SOL    HW148945  10.949   2.145  10.016
15646SOL    HW248946  10.949   2.029  10.112
15647SOL     OW48947   4.530   1.655   8.202
15647SOL    HW148948   4.515   1.616   8.116
15647SOL    HW248949   4.524   1.581   8.263
15648SOL     OW48950   1.012   5.979   1.749
15648SOL    HW148951   1.036   6.007   1.837
15648SOL    HW248952   1.061   5.898   1.735
15649SOL     OW48953   5.018  10.522  10.363
15649SOL    HW148954   4.989  10.433  10.383
15649SOL    HW248955   5.047  10.518  10.272
15650SOL     OW48956   7.601  10.047  10.606
15650SOL    HW148957   7.582  10.141  10.605
15650SOL    HW248958   7.518  10.006  10.629
15651SOL     OW48959   9.251   0.730   7.796
15651SOL    HW148960   9.288   0.761   7.713
15651SOL    HW248961   9.172   0.682   7.771
15652SOL     OW48962   1.948   0.689   5.977
15652SOL    HW148963   1.890   0.626   6.021
15652SOL    HW248964   2.027   0.638   5.956
15653SOL     OW48965   4.830   3.609   4.171
15653SOL    HW148966   4.909   3.633   4.219
15653SOL    HW248967   4.810   3.685   4.117
15654SOL     OW48968   8.083   7.821   4.443
15654SOL    HW148969   8.020   7.749   4.432
15654SOL    HW248970   8.127   7.802   4.526
15655SOL     OW48971   9.173   1.586  10.731
15655SOL    HW148972   9.129   1.668  10.750
15655SOL    HW248973   9.258   1.593  10.774
15656SOL     OW48974   8.400  10.979   7.675
15656SOL    HW148975   8.403  10.993   7.769
15656SOL    HW248976   8.474  10.921   7.657
15657SOL     OW48977   0.957   4.615   8.369
15657SOL    HW148978   0.926   4.530   8.402
15657SOL    HW248979   1.049   4.618   8.394
15658SOL     OW48980   0.401   0.265  10.723
15658SOL    HW148981   0.425   0.174  10.741
15658SOL    HW248982   0.462   0.317  10.775
15659SOL     OW48983   4.600   4.316  10.578
15659SOL    HW148984   4.608   4.251  10.507
15659SOL    HW248985   4.569   4.265  10.653
15660SOL     OW48986   7.154   9.244   0.641
15660SOL    HW148987   7.091   9.279   0.578
15660SOL    HW248988   7.183   9.161   0.602
15661SOL     OW48989   2.639  10.761   3.931
15661SOL    HW148990   2.683  10.845   3.941
15661SOL    HW248991   2.571  10.761   3.998
15662SOL     OW48992   0.871   8.892   2.407
15662SOL    HW148993   0.905   8.879   2.495
15662SOL    HW248994   0.825   8.810   2.387
15663SOL     OW48995   6.901   2.189   9.843
15663SOL    HW148996   6.935   2.117   9.789
15663SOL    HW248997   6.944   2.267   9.808
15664SOL     OW48998   1.248  11.009   8.944
15664SOL    HW148999   1.215  11.094   8.915
15664SOL    HW249000   1.188  10.946   8.904
15665SOL     OW49001  10.221  11.041  11.042
15665SOL    HW149002  10.285  11.007  10.979
15665SOL    HW249003  10.170  10.964  11.067
15666SOL     OW49004   4.687   2.822   7.157
15666SOL    HW149005   4.670   2.882   7.085
15666SOL    HW249006   4.692   2.878   7.234
15667SOL     OW49007   3.314   8.900   6.407
15667SOL    HW149008   3.355   8.876   6.490
15667SOL    HW249009   3.306   8.995   6.411
15668SOL     OW49010  11.101   2.078   4.985
15668SOL    HW149011  11.043   2.152   4.968
15668SOL    HW249012  11.067   2.007   4.930
15669SOL     OW49013   6.626   5.527  10.523
15669SOL    HW149014   6.635   5.467  10.597
15669SOL    HW249015   6.645   5.613  10.559
15670SOL     OW49016   7.841  10.005   7.037
15670SOL    HW149017   7.792  10.082   7.063
15670SOL    HW249018   7.886  10.031   6.956
15671SOL     OW49019   4.860   6.014   8.430
15671SOL    HW149020   4.797   5.944   8.411
15671SOL    HW249021   4.863   6.019   8.525
15672SOL     OW49022   2.095   6.391   4.379
15672SOL    HW149023   2.156   6.363   4.447
15672SOL    HW249024   2.076   6.482   4.399
15673SOL     OW49025   6.363  10.848   6.832
15673SOL    HW149026   6.302  10.899   6.779
15673SOL    HW249027   6.341  10.757   6.812
15674SOL     OW49028   5.060   3.782   5.976
15674SOL    HW149029   5.079   3.867   5.936
15674SOL    HW249030   5.144   3.736   5.976
15675SOL     OW49031   2.083  11.071   2.626
15675SOL    HW149032   2.112  11.160   2.606
15675SOL    HW249033   2.002  11.083   2.674
15676SOL     OW49034   1.980   1.010  10.298
15676SOL    HW149035   2.010   0.944  10.361
15676SOL    HW249036   1.917   1.062  10.346
15677SOL     OW49037   3.443  10.764   8.518
15677SOL    HW149038   3.509  10.792   8.455
15677SOL    HW249039   3.360  10.788   8.477
15678SOL     OW49040   4.513   9.653   2.237
15678SOL    HW149041   4.443   9.707   2.274
15678SOL    HW249042   4.561   9.620   2.312
15679SOL     OW49043   6.431  10.788   6.195
15679SOL    HW149044   6.515  10.745   6.181
15679SOL    HW249045   6.427  10.804   6.289
15680SOL     OW49046   5.849   1.577   4.026
15680SOL    HW149047   5.861   1.491   3.984
15680SOL    HW249048   5.767   1.569   4.074
15681SOL     OW49049   5.994   6.725   8.128
15681SOL    HW149050   5.970   6.810   8.092
15681SOL    HW249051   5.930   6.710   8.198
15682SOL     OW49052   3.210  10.179   3.488
15682SOL    HW149053   3.261  10.240   3.435
15682SOL    HW249054   3.250  10.183   3.575
15683SOL     OW49055   9.254   6.545   3.034
15683SOL    HW149056   9.260   6.540   2.938
15683SOL    HW249057   9.161   6.559   3.051
15684SOL     OW49058   3.389   4.684   0.337
15684SOL    HW149059   3.419   4.601   0.374
15684SOL    HW249060   3.435   4.750   0.388
15685SOL     OW49061   6.743  10.718   3.974
15685SOL    HW149062   6.692  10.793   4.004
15685SOL    HW249063   6.834  10.742   3.993
15686SOL     OW49064   3.067   5.008   7.331
15686SOL    HW149065   2.997   5.042   7.386
15686SOL    HW249066   3.139   5.070   7.343
15687SOL     OW49067   0.468   0.736  10.256
15687SOL    HW149068   0.488   0.759  10.165
15687SOL    HW249069   0.554   0.725  10.297
15688SOL     OW49070   4.936   4.296   9.795
15688SOL    HW149071   5.027   4.313   9.771
15688SOL    HW249072   4.907   4.376   9.838
15689SOL     OW49073   8.756  10.069   9.615
15689SOL    HW149074   8.694  10.093   9.546
15689SOL    HW249075   8.837  10.047   9.568
15690SOL     OW49076   7.759   5.705   0.862
15690SOL    HW149077   7.829   5.666   0.808
15690SOL    HW249078   7.715   5.767   0.803
15691SOL     OW49079   4.928   1.370   9.672
15691SOL    HW149080   4.888   1.454   9.691
15691SOL    HW249081   4.870   1.305   9.713
15692SOL     OW49082   8.575  10.060   1.594
15692SOL    HW149083   8.547  10.149   1.572
15692SOL    HW249084   8.594  10.019   1.509
15693SOL     OW49085  10.367   8.220   2.066
15693SOL    HW149086  10.369   8.154   2.135
15693SOL    HW249087  10.385   8.302   2.111
15694SOL     OW49088   8.341   7.274   7.457
15694SOL    HW149089   8.381   7.319   7.382
15694SOL    HW249090   8.405   7.207   7.482
15695SOL     OW49091   8.810   4.064   6.643
15695SOL    HW149092   8.902   4.041   6.626
15695SOL    HW249093   8.786   4.011   6.719
15696SOL     OW49094   4.726   0.143   0.029
15696SOL    HW149095   4.651   0.200   0.015
15696SOL    HW249096   4.802   0.197   0.006
15697SOL     OW49097   2.759   8.626   7.938
15697SOL    HW149098   2.783   8.538   7.968
15697SOL    HW249099   2.788   8.629   7.846
15698SOL     OW49100   4.675  10.332   7.594
15698SOL    HW149101   4.688  10.330   7.689
15698SOL    HW249102   4.677  10.240   7.567
15699SOL     OW49103   4.336   4.793   8.531
15699SOL    HW149104   4.301   4.853   8.597
15699SOL    HW249105   4.424   4.772   8.562
15700SOL     OW49106   3.963   2.589   7.077
15700SOL    HW149107   3.904   2.624   7.010
15700SOL    HW249108   3.919   2.510   7.109
15701SOL     OW49109   5.642   8.449   8.250
15701SOL    HW149110   5.659   8.354   8.250
15701SOL    HW249111   5.671   8.478   8.163
15702SOL     OW49112   4.116  10.363   5.783
15702SOL    HW149113   4.085  10.274   5.766
15702SOL    HW249114   4.058  10.396   5.851
15703SOL     OW49115   6.672   9.389  11.074
15703SOL    HW149116   6.701   9.387  10.982
15703SOL    HW249117   6.634   9.302  11.088
15704SOL     OW49118   0.358  10.591   2.699
15704SOL    HW149119   0.426  10.606   2.633
15704SOL    HW249120   0.338  10.498   2.692
15705SOL     OW49121   0.749   8.890   8.307
15705SOL    HW149122   0.783   8.976   8.285
15705SOL    HW249123   0.657   8.905   8.329
15706SOL     OW49124   6.486   6.361   3.975
15706SOL    HW149125   6.465   6.330   4.063
15706SOL    HW249126   6.528   6.446   3.988
15707SOL     OW49127   3.624   2.726   1.618
15707SOL    HW149128   3.595   2.742   1.528
15707SOL    HW249129   3.684   2.651   1.610
15708SOL     OW49130   4.024  10.961   7.753
15708SOL    HW149131   4.004  10.882   7.702
15708SOL    HW249132   4.100  10.937   7.806
15709SOL     OW49133   4.998   0.610   4.060
15709SOL    HW149134   5.085   0.630   4.093
15709SOL    HW249135   4.977   0.525   4.099
15710SOL     OW49136   6.229   5.621   8.429
15710SOL    HW149137   6.182   5.687   8.479
15710SOL    HW249138   6.253   5.665   8.347
15711SOL     OW49139  11.032   6.073   4.331
15711SOL    HW149140  10.997   6.160   4.312
15711SOL    HW249141  11.020   6.024   4.249
15712SOL     OW49142  10.396   7.817   2.201
15712SOL    HW149143  10.473   7.789   2.151
15712SOL    HW249144  10.364   7.736   2.242
15713SOL     OW49145   3.353  10.913   3.056
15713SOL    HW149146   3.362  11.008   3.049
15713SOL    HW249147   3.420  10.878   2.997
15714SOL     OW49148   8.972  11.026   0.867
15714SOL    HW149149   9.033  11.050   0.936
15714SOL    HW249150   8.896  10.990   0.913
15715SOL     OW49151   6.265   0.126   6.784
15715SOL    HW149152   6.199   0.056   6.780
15715SOL    HW249153   6.306   0.124   6.697
15716SOL     OW49154   3.436   2.603   6.875
15716SOL    HW149155   3.379   2.613   6.951
15716SOL    HW249156   3.517   2.566   6.910
15717SOL     OW49157  10.550   2.218   3.276
15717SOL    HW149158  10.496   2.165   3.217
15717SOL    HW249159  10.508   2.303   3.277
15718SOL     OW49160   4.549  11.104   1.553
15718SOL    HW149161   4.583  11.058   1.476
15718SOL    HW249162   4.474  11.051   1.580
15719SOL     OW49163   9.220   2.496   9.786
15719SOL    HW149164   9.252   2.565   9.843
15719SOL    HW249165   9.213   2.419   9.843
15720SOL     OW49166   7.544  10.335   3.007
15720SOL    HW149167   7.469  10.305   2.955
15720SOL    HW249168   7.617  10.281   2.976
15721SOL     OW49169   0.282   1.613   7.649
15721SOL    HW149170   0.221   1.564   7.593
15721SOL    HW249171   0.367   1.573   7.632
15722SOL     OW49172   6.908   1.620   3.797
15722SOL    HW149173   6.902   1.657   3.885
15722SOL    HW249174   6.921   1.695   3.739
15723SOL     OW49175   3.154   9.809   4.816
15723SOL    HW149176   3.153   9.896   4.777
15723SOL    HW249177   3.126   9.751   4.745
15724SOL     OW49178   0.021   0.788   4.551
15724SOL    HW149179  -0.074   0.799   4.559
15724SOL    HW249180   0.054   0.802   4.639
15725SOL     OW49181   0.380   1.589   0.229
15725SOL    HW149182   0.475   1.586   0.215
15725SOL    HW249183   0.343   1.560   0.145
15726SOL     OW49184   6.781   1.607   9.811
15726SOL    HW149185   6.873   1.633   9.800
15726SOL    HW249186   6.742   1.677   9.863
15727SOL     OW49187   0.764   3.920   4.923
15727SOL    HW149188   0.830   3.956   4.981
15727SOL    HW249189   0.681   3.950   4.959
15728SOL     OW49190   4.469   9.518   6.255
15728SOL    HW149191   4.529   9.445   6.240
15728SOL    HW249192   4.462   9.561   6.170
15729SOL     OW49193   6.327   5.234   8.310
15729SOL    HW149194   6.332   5.208   8.218
15729SOL    HW249195   6.285   5.160   8.353
15730SOL     OW49196   5.584   1.737   7.312
15730SOL    HW149197   5.630   1.821   7.316
15730SOL    HW249198   5.502   1.757   7.267
15731SOL     OW49199   4.084   4.668   4.779
15731SOL    HW149200   4.150   4.736   4.764
15731SOL    HW249201   4.021   4.708   4.839
15732SOL     OW49202   4.169   5.049   7.901
15732SOL    HW149203   4.132   4.975   7.852
15732SOL    HW249204   4.255   5.063   7.861
15733SOL     OW49205  10.628   1.603   0.185
15733SOL    HW149206  10.578   1.590   0.105
15733SOL    HW249207  10.634   1.698   0.194
15734SOL     OW49208   8.256   2.650   1.401
15734SOL    HW149209   8.257   2.594   1.323
15734SOL    HW249210   8.164   2.658   1.423
15735SOL     OW49211   3.728   1.027  10.132
15735SOL    HW149212   3.676   1.068  10.201
15735SOL    HW249213   3.674   1.033  10.053
15736SOL     OW49214   4.428   3.111   0.437
15736SOL    HW149215   4.424   3.203   0.413
15736SOL    HW249216   4.337   3.082   0.435
15737SOL     OW49217   6.414   2.355   7.176
15737SOL    HW149218   6.462   2.413   7.235
15737SOL    HW249219   6.322   2.375   7.192
15738SOL     OW49220   6.216   0.673   6.684
15738SOL    HW149221   6.303   0.699   6.652
15738SOL    HW249222   6.166   0.653   6.605
15739SOL     OW49223   4.040   6.681   9.071
15739SOL    HW149224   3.958   6.709   9.112
15739SOL    HW249225   4.092   6.761   9.064
15740SOL     OW49226   8.829  11.090   9.358
15740SOL    HW149227   8.853  11.005   9.395
15740SOL    HW249228   8.858  11.154   9.423
15741SOL     OW49229   5.669   2.504   0.033
15741SOL    HW149230   5.632   2.582  -0.008
15741SOL    HW249231   5.706   2.535   0.116
15742SOL     OW49232   7.868   7.663   5.443
15742SOL    HW149233   7.944   7.686   5.389
15742SOL    HW249234   7.842   7.576   5.411
15743SOL     OW49235   1.483   0.393   8.256
15743SOL    HW149236   1.397   0.434   8.260
15743SOL    HW249237   1.544   0.465   8.246
15744SOL     OW49238   2.320   4.112   0.428
15744SOL    HW149239   2.252   4.167   0.464
15744SOL    HW249240   2.397   4.169   0.422
15745SOL     OW49241   1.193   7.223   8.548
15745SOL    HW149242   1.246   7.167   8.605
15745SOL    HW249243   1.237   7.219   8.463
15746SOL     OW49244   8.240   3.796   8.365
15746SOL    HW149245   8.180   3.723   8.349
15746SOL    HW249246   8.258   3.792   8.459
15747SOL     OW49247   1.222   4.600   8.457
15747SOL    HW149248   1.301   4.654   8.459
15747SOL    HW249249   1.211   4.570   8.547
15748SOL     OW49250   3.831   8.183   3.347
15748SOL    HW149251   3.819   8.232   3.428
15748SOL    HW249252   3.751   8.131   3.338
15749SOL     OW49253   7.640   8.704   4.353
15749SOL    HW149254   7.546   8.717   4.367
15749SOL    HW249255   7.651   8.709   4.258
15750SOL     OW49256   2.698   1.739   8.724
15750SOL    HW149257   2.680   1.804   8.791
15750SOL    HW249258   2.790   1.752   8.702
15751SOL     OW49259   3.349   6.991   9.649
15751SOL    HW149260   3.281   7.003   9.583
15751SOL    HW249261   3.405   7.067   9.639
15752SOL     OW49262  10.777   3.203   7.418
15752SOL    HW149263  10.790   3.205   7.323
15752SOL    HW249264  10.683   3.218   7.430
15753SOL     OW49265   3.767   4.068   9.727
15753SOL    HW149266   3.731   4.019   9.801
15753SOL    HW249267   3.713   4.146   9.722
15754SOL     OW49268   2.762   2.383   1.037
15754SOL    HW149269   2.761   2.478   1.046
15754SOL    HW249270   2.843   2.356   1.080
15755SOL     OW49271   6.451   1.659   6.432
15755SOL    HW149272   6.486   1.613   6.508
15755SOL    HW249273   6.361   1.679   6.456
15756SOL     OW49274   4.099   3.228   2.672
15756SOL    HW149275   4.016   3.264   2.640
15756SOL    HW249276   4.166   3.272   2.619
15757SOL     OW49277   0.880   0.972   1.856
15757SOL    HW149278   0.967   0.934   1.844
15757SOL    HW249279   0.895   1.066   1.859
15758SOL     OW49280   5.669   0.198   9.785
15758SOL    HW149281   5.738   0.135   9.763
15758SOL    HW249282   5.653   0.184   9.878
15759SOL     OW49283   1.443   9.085   5.148
15759SOL    HW149284   1.441   9.178   5.126
15759SOL    HW249285   1.528   9.054   5.115
15760SOL     OW49286   6.589   6.333   6.722
15760SOL    HW149287   6.507   6.323   6.771
15760SOL    HW249288   6.588   6.260   6.659
15761SOL     OW49289   2.528   7.856   8.370
15761SOL    HW149290   2.556   7.870   8.460
15761SOL    HW249291   2.581   7.782   8.339
15762SOL     OW49292   3.416   2.160   3.702
15762SOL    HW149293   3.453   2.093   3.644
15762SOL    HW249294   3.489   2.184   3.759
15763SOL     OW49295   3.651   8.483   4.907
15763SOL    HW149296   3.681   8.547   4.842
15763SOL    HW249297   3.732   8.443   4.940
15764SOL     OW49298   9.444   9.837  10.031
15764SOL    HW149299   9.462   9.776  10.102
15764SOL    HW249300   9.392   9.906  10.071
15765SOL     OW49301  10.387   2.022   2.987
15765SOL    HW149302  10.373   2.024   3.081
15765SOL    HW249303  10.320   2.081   2.951
15766SOL     OW49304   3.055   0.999   3.816
15766SOL    HW149305   2.994   0.997   3.742
15766SOL    HW249306   3.142   0.999   3.775
15767SOL     OW49307   4.739   0.867   7.719
15767SOL    HW149308   4.831   0.841   7.717
15767SOL    HW249309   4.734   0.932   7.789
15768SOL     OW49310   6.140   9.498   1.773
15768SOL    HW149311   6.115   9.537   1.856
15768SOL    HW249312   6.057   9.476   1.731
15769SOL     OW49313   0.101   6.705   5.876
15769SOL    HW149314   0.171   6.669   5.930
15769SOL    HW249315   0.143   6.727   5.793
15770SOL     OW49316   1.132   8.190   3.849
15770SOL    HW149317   1.045   8.185   3.888
15770SOL    HW249318   1.149   8.101   3.817
15771SOL     OW49319   0.873  10.807   7.408
15771SOL    HW149320   0.811  10.734   7.410
15771SOL    HW249321   0.819  10.885   7.422
15772SOL     OW49322   7.449   4.745   0.075
15772SOL    HW149323   7.459   4.717  -0.016
15772SOL    HW249324   7.527   4.797   0.093
15773SOL     OW49325   6.089   0.230   9.091
15773SOL    HW149326   6.127   0.171   9.156
15773SOL    HW249327   6.068   0.310   9.139
15774SOL     OW49328   3.022   0.374   6.212
15774SOL    HW149329   3.035   0.345   6.302
15774SOL    HW249330   2.927   0.373   6.200
15775SOL     OW49331   1.727   0.273   7.660
15775SOL    HW149332   1.658   0.323   7.616
15775SOL    HW249333   1.807   0.324   7.646
15776SOL     OW49334   9.517   8.248   8.089
15776SOL    HW149335   9.595   8.193   8.091
15776SOL    HW249336   9.477   8.229   8.004
15777SOL     OW49337   5.276   3.239  10.805
15777SOL    HW149338   5.252   3.321  10.847
15777SOL    HW249339   5.245   3.248  10.715
15778SOL     OW49340   8.360   2.900   4.833
15778SOL    HW149341   8.328   2.938   4.914
15778SOL    HW249342   8.449   2.934   4.824
15779SOL     OW49343   7.472   7.021   2.727
15779SOL    HW149344   7.383   7.045   2.703
15779SOL    HW249345   7.525   7.096   2.700
15780SOL     OW49346   1.491   9.424   3.745
15780SOL    HW149347   1.558   9.386   3.801
15780SOL    HW249348   1.466   9.505   3.789
15781SOL     OW49349   8.376   2.868   6.444
15781SOL    HW149350   8.449   2.915   6.483
15781SOL    HW249351   8.416   2.818   6.372
15782SOL     OW49352   6.584   3.228   9.356
15782SOL    HW149353   6.570   3.229   9.261
15782SOL    HW249354   6.632   3.147   9.372
15783SOL     OW49355   6.754   7.734   6.480
15783SOL    HW149356   6.724   7.674   6.411
15783SOL    HW249357   6.803   7.801   6.433
15784SOL     OW49358   9.418   4.300   7.252
15784SOL    HW149359   9.462   4.355   7.187
15784SOL    HW249360   9.471   4.220   7.255
15785SOL     OW49361   2.680   1.089  10.505
15785SOL    HW149362   2.599   1.051  10.471
15785SOL    HW249363   2.746   1.020  10.491
15786SOL     OW49364   9.852   5.050   3.846
15786SOL    HW149365   9.872   5.066   3.753
15786SOL    HW249366   9.882   5.129   3.891
15787SOL     OW49367   3.732   6.476   8.321
15787SOL    HW149368   3.675   6.526   8.379
15787SOL    HW249369   3.813   6.527   8.317
15788SOL     OW49370   9.538   9.203   8.896
15788SOL    HW149371   9.582   9.199   8.811
15788SOL    HW249372   9.533   9.296   8.916
15789SOL     OW49373   4.320   6.627   3.442
15789SOL    HW149374   4.278   6.597   3.522
15789SOL    HW249375   4.253   6.616   3.374
15790SOL     OW49376   0.443   4.954   9.958
15790SOL    HW149377   0.417   4.893   9.889
15790SOL    HW249378   0.499   5.018   9.914
15791SOL     OW49379   5.098   5.699   7.615
15791SOL    HW149380   5.084   5.604   7.619
15791SOL    HW249381   5.066   5.724   7.528
15792SOL     OW49382   1.801   0.979   7.699
15792SOL    HW149383   1.868   1.015   7.641
15792SOL    HW249384   1.754   1.055   7.733
15793SOL     OW49385  10.085  10.765   6.487
15793SOL    HW149386  10.155  10.760   6.422
15793SOL    HW249387  10.110  10.837   6.544
15794SOL     OW49388   2.306   2.074   8.022
15794SOL    HW149389   2.301   2.169   8.011
15794SOL    HW249390   2.366   2.045   7.953
15795SOL     OW49391   1.784   1.881   3.008
15795SOL    HW149392   1.790   1.787   3.029
15795SOL    HW249393   1.763   1.923   3.091
15796SOL     OW49394  10.153   6.294   9.964
15796SOL    HW149395  10.206   6.221   9.930
15796SOL    HW249396  10.084   6.252  10.014
15797SOL     OW49397   4.045   2.633   9.528
15797SOL    HW149398   4.120   2.653   9.584
15797SOL    HW249399   4.084   2.590   9.452
15798SOL     OW49400   4.899   7.654   0.350
15798SOL    HW149401   4.904   7.588   0.419
15798SOL    HW249402   4.978   7.639   0.297
15799SOL     OW49403   0.722  10.554   8.783
15799SOL    HW149404   0.653  10.500   8.822
15799SOL    HW249405   0.679  10.599   8.710
15800SOL     OW49406  11.038   8.615   9.257
15800SOL    HW149407  11.038   8.585   9.348
15800SOL    HW249408  10.969   8.681   9.253
15801SOL     OW49409   3.988   1.083   8.485
15801SOL    HW149410   4.058   1.053   8.427
15801SOL    HW249411   4.011   1.173   8.505
15802SOL     OW49412   4.258   9.425   6.463
15802SOL    HW149413   4.326   9.438   6.397
15802SOL    HW249414   4.179   9.461   6.423
15803SOL     OW49415   0.408   2.897   5.101
15803SOL    HW149416   0.369   2.848   5.173
15803SOL    HW249417   0.365   2.862   5.022
15804SOL     OW49418   1.582   6.018   6.514
15804SOL    HW149419   1.554   6.019   6.605
15804SOL    HW249420   1.665   6.066   6.514
15805SOL     OW49421   3.877   0.378   8.647
15805SOL    HW149422   3.921   0.298   8.676
15805SOL    HW249423   3.946   0.444   8.647
15806SOL     OW49424   7.227   7.249  10.418
15806SOL    HW149425   7.218   7.293  10.333
15806SOL    HW249426   7.153   7.188  10.421
15807SOL     OW49427   3.501   4.109   1.646
15807SOL    HW149428   3.554   4.029   1.645
15807SOL    HW249429   3.446   4.100   1.724
15808SOL     OW49430   3.848  10.072   1.230
15808SOL    HW149431   3.890  10.120   1.159
15808SOL    HW249432   3.869  10.122   1.309
15809SOL     OW49433   3.645   4.484   8.959
15809SOL    HW149434   3.644   4.497   9.054
15809SOL    HW249435   3.721   4.534   8.929
15810SOL     OW49436   8.244   1.210   0.666
15810SOL    HW149437   8.339   1.195   0.672
15810SOL    HW249438   8.211   1.131   0.622
15811SOL     OW49439   2.761   3.564   4.493
15811SOL    HW149440   2.767   3.653   4.459
15811SOL    HW249441   2.791   3.570   4.583
15812SOL     OW49442   7.189  10.199  10.112
15812SOL    HW149443   7.198  10.266  10.044
15812SOL    HW249444   7.122  10.232  10.171
15813SOL     OW49445   2.510   7.779   1.900
15813SOL    HW149446   2.551   7.742   1.978
15813SOL    HW249447   2.446   7.713   1.873
15814SOL     OW49448   5.219   8.329   2.186
15814SOL    HW149449   5.305   8.339   2.227
15814SOL    HW249450   5.228   8.371   2.100
15815SOL     OW49451   3.753   9.761   0.660
15815SOL    HW149452   3.834   9.709   0.662
15815SOL    HW249453   3.695   9.717   0.722
15816SOL     OW49454   0.321   2.633   2.490
15816SOL    HW149455   0.299   2.555   2.541
15816SOL    HW249456   0.356   2.694   2.554
15817SOL     OW49457   9.365   0.852   7.569
15817SOL    HW149458   9.328   0.939   7.558
15817SOL    HW249459   9.442   0.851   7.512
15818SOL     OW49460   1.703   0.861   2.754
15818SOL    HW149461   1.667   0.790   2.700
15818SOL    HW249462   1.776   0.896   2.702
15819SOL     OW49463  11.021  10.677   9.709
15819SOL    HW149464  11.075  10.756   9.720
15819SOL    HW249465  10.951  10.704   9.650
15820SOL     OW49466   5.030   9.743   7.488
15820SOL    HW149467   5.048   9.680   7.558
15820SOL    HW249468   4.962   9.701   7.435
15821SOL     OW49469   6.543   3.794   8.964
15821SOL    HW149470   6.619   3.850   8.979
15821SOL    HW249471   6.509   3.775   9.051
15822SOL     OW49472   9.726   5.558   7.479
15822SOL    HW149473   9.744   5.603   7.396
15822SOL    HW249474   9.751   5.620   7.547
15823SOL     OW49475   3.386   9.660   3.454
15823SOL    HW149476   3.384   9.701   3.367
15823SOL    HW249477   3.303   9.613   3.460
15824SOL     OW49478   7.556   1.190  10.696
15824SOL    HW149479   7.611   1.201  10.618
15824SOL    HW249480   7.576   1.101  10.727
15825SOL     OW49481   7.657   4.063   1.187
15825SOL    HW149482   7.729   4.076   1.249
15825SOL    HW249483   7.667   3.972   1.157
15826SOL     OW49484   6.546  10.360   5.035
15826SOL    HW149485   6.635  10.357   5.000
15826SOL    HW249486   6.499  10.419   4.976
15827SOL     OW49487   0.015   1.413   3.495
15827SOL    HW149488   0.004   1.499   3.455
15827SOL    HW249489  -0.070   1.394   3.535
15828SOL     OW49490   3.663   8.772   2.842
15828SOL    HW149491   3.682   8.857   2.802
15828SOL    HW249492   3.740   8.753   2.896
15829SOL     OW49493   9.415   2.078   7.142
15829SOL    HW149494   9.430   1.990   7.178
15829SOL    HW249495   9.347   2.116   7.197
15830SOL     OW49496   4.686   4.707   2.913
15830SOL    HW149497   4.755   4.771   2.897
15830SOL    HW249498   4.642   4.738   2.992
15831SOL     OW49499   9.346   1.429   5.128
15831SOL    HW149500   9.253   1.415   5.109
15831SOL    HW249501   9.386   1.342   5.120
15832SOL     OW49502   2.198   7.861   5.506
15832SOL    HW149503   2.144   7.921   5.456
15832SOL    HW249504   2.153   7.776   5.498
15833SOL     OW49505   4.973  11.098  10.094
15833SOL    HW149506   4.894  11.083  10.146
15833SOL    HW249507   5.016  11.012  10.090
15834SOL     OW49508   4.306   0.563   1.441
15834SOL    HW149509   4.265   0.481   1.468
15834SOL    HW249510   4.352   0.541   1.360
15835SOL     OW49511  10.409   5.940   1.035
15835SOL    HW149512  10.376   5.911   0.950
15835SOL    HW249513  10.454   5.863   1.070
15836SOL     OW49514  10.018   9.917   7.123
15836SOL    HW149515  10.024   9.825   7.150
15836SOL    HW249516   9.925   9.938   7.129
15837SOL     OW49517  10.221  11.097   8.594
15837SOL    HW149518  10.312  11.069   8.589
15837SOL    HW249519  10.194  11.106   8.502
15838SOL     OW49520   2.253   9.440   2.068
15838SOL    HW149521   2.248   9.407   1.978
15838SOL    HW249522   2.347   9.446   2.086
15839SOL     OW49523   1.450   0.075  10.219
15839SOL    HW149524   1.542   0.055  10.202
15839SOL    HW249525   1.427   0.141  10.153
15840SOL     OW49526  10.642   0.075   5.278
15840SOL    HW149527  10.587   0.152   5.272
15840SOL    HW249528  10.695   0.077   5.198
15841SOL     OW49529   8.024   0.807   8.825
15841SOL    HW149530   8.076   0.726   8.824
15841SOL    HW249531   7.946   0.786   8.773
15842SOL     OW49532   1.394   9.925   8.870
15842SOL    HW149533   1.372  10.017   8.857
15842SOL    HW249534   1.403   9.890   8.781
15843SOL     OW49535   7.050   8.128   4.608
15843SOL    HW149536   7.078   8.090   4.524
15843SOL    HW249537   6.960   8.097   4.619
15844SOL     OW49538   4.829   9.633   1.872
15844SOL    HW149539   4.768   9.628   1.798
15844SOL    HW249540   4.860   9.543   1.883
15845SOL     OW49541  10.730  10.905   9.954
15845SOL    HW149542  10.826  10.906   9.951
15845SOL    HW249543  10.704  10.994   9.932
15846SOL     OW49544   8.264   9.588  10.492
15846SOL    HW149545   8.327   9.534  10.540
15846SOL    HW249546   8.273   9.560  10.401
15847SOL     OW49547   5.022   5.443  10.798
15847SOL    HW149548   4.952   5.401  10.848
15847SOL    HW249549   4.979   5.476  10.719
15848SOL     OW49550   3.238   2.073   1.190
15848SOL    HW149551   3.190   2.085   1.272
15848SOL    HW249552   3.316   2.127   1.200
15849SOL     OW49553   0.769   5.672   6.879
15849SOL    HW149554   0.753   5.588   6.923
15849SOL    HW249555   0.719   5.736   6.929
15850SOL     OW49556   7.783   6.139   0.279
15850SOL    HW149557   7.832   6.200   0.334
15850SOL    HW249558   7.814   6.052   0.305
15851SOL     OW49559   1.072   0.439   0.647
15851SOL    HW149560   1.076   0.532   0.625
15851SOL    HW249561   1.146   0.400   0.600
15852SOL     OW49562   8.473   6.381   2.851
15852SOL    HW149563   8.431   6.464   2.873
15852SOL    HW249564   8.565   6.403   2.838
15853SOL     OW49565  10.182   1.836   2.366
15853SOL    HW149566  10.238   1.817   2.441
15853SOL    HW249567  10.107   1.882   2.402
15854SOL     OW49568   7.875  10.191   2.143
15854SOL    HW149569   7.955  10.240   2.123
15854SOL    HW249570   7.884  10.166   2.235
15855SOL     OW49571   4.087   0.878  10.909
15855SOL    HW149572   4.106   0.825  10.831
15855SOL    HW249573   4.136   0.959  10.895
15856SOL     OW49574   1.812   3.427   1.616
15856SOL    HW149575   1.717   3.419   1.616
15856SOL    HW249576   1.841   3.365   1.549
15857SOL     OW49577   0.040   5.407   0.191
15857SOL    HW149578   0.057   5.480   0.133
15857SOL    HW249579   0.122   5.358   0.194
15858SOL     OW49580   3.468   8.619   5.535
15858SOL    HW149581   3.380   8.656   5.545
15858SOL    HW249582   3.524   8.676   5.588
15859SOL     OW49583   2.223   3.536   5.880
15859SOL    HW149584   2.223   3.485   5.961
15859SOL    HW249585   2.148   3.595   5.889
15860SOL     OW49586   6.581   0.260   9.832
15860SOL    HW149587   6.677   0.262   9.834
15860SOL    HW249588   6.554   0.343   9.870
15861SOL     OW49589   3.812   5.640   8.101
15861SOL    HW149590   3.844   5.683   8.022
15861SOL    HW249591   3.742   5.697   8.133
15862SOL     OW49592   5.776  10.414   7.935
15862SOL    HW149593   5.801  10.359   8.009
15862SOL    HW249594   5.699  10.462   7.965
15863SOL     OW49595   0.481  10.091   0.943
15863SOL    HW149596   0.397  10.137   0.935
15863SOL    HW249597   0.492  10.078   1.037
15864SOL     OW49598   6.514   5.862  10.343
15864SOL    HW149599   6.597   5.910  10.348
15864SOL    HW249600   6.528   5.796  10.274
15865SOL     OW49601   8.027   8.393   3.417
15865SOL    HW149602   7.995   8.446   3.490
15865SOL    HW249603   8.066   8.316   3.458
15866SOL     OW49604   1.854   3.534   8.871
15866SOL    HW149605   1.829   3.450   8.831
15866SOL    HW249606   1.852   3.596   8.798
15867SOL     OW49607   5.565   5.560  10.277
15867SOL    HW149608   5.470   5.557  10.286
15867SOL    HW249609   5.597   5.586  10.363
15868SOL     OW49610   7.482  10.203   1.436
15868SOL    HW149611   7.559  10.260   1.428
15868SOL    HW249612   7.408  10.263   1.442
15869SOL     OW49613   7.350   3.817   9.310
15869SOL    HW149614   7.278   3.785   9.256
15869SOL    HW249615   7.322   3.800   9.400
15870SOL     OW49616   3.570   9.676   9.363
15870SOL    HW149617   3.487   9.683   9.410
15870SOL    HW249618   3.637   9.695   9.429
15871SOL     OW49619   2.730   2.959   0.824
15871SOL    HW149620   2.706   2.974   0.732
15871SOL    HW249621   2.701   2.869   0.842
15872SOL     OW49622   6.532   0.128   1.002
15872SOL    HW149623   6.489   0.094   0.923
15872SOL    HW249624   6.521   0.058   1.066
15873SOL     OW49625   5.669   7.063  10.138
15873SOL    HW149626   5.614   7.132  10.174
15873SOL    HW249627   5.721   7.032  10.212
15874SOL     OW49628   4.192   3.649   8.213
15874SOL    HW149629   4.185   3.653   8.117
15874SOL    HW249630   4.286   3.656   8.231
15875SOL     OW49631   7.153   2.411   3.317
15875SOL    HW149632   7.201   2.384   3.238
15875SOL    HW249633   7.221   2.430   3.381
15876SOL     OW49634   2.423  10.927   4.827
15876SOL    HW149635   2.355  10.905   4.763
15876SOL    HW249636   2.376  10.939   4.909
15877SOL     OW49637   9.792   8.249   5.369
15877SOL    HW149638   9.706   8.207   5.366
15877SOL    HW249639   9.799   8.284   5.457
15878SOL     OW49640   6.605   5.935   1.974
15878SOL    HW149641   6.619   5.881   2.052
15878SOL    HW249642   6.510   5.942   1.966
15879SOL     OW49643   1.353   2.614   2.625
15879SOL    HW149644   1.288   2.680   2.648
15879SOL    HW249645   1.364   2.562   2.704
15880SOL     OW49646   4.320   1.354   2.531
15880SOL    HW149647   4.235   1.395   2.545
15880SOL    HW249648   4.369   1.369   2.612
15881SOL     OW49649   9.265  10.591   6.956
15881SOL    HW149650   9.226  10.664   7.004
15881SOL    HW249651   9.259  10.617   6.864
15882SOL     OW49652  11.050   2.746   8.219
15882SOL    HW149653  10.966   2.710   8.190
15882SOL    HW249654  11.062   2.711   8.307
15883SOL     OW49655   0.304   1.001   5.913
15883SOL    HW149656   0.384   1.010   5.965
15883SOL    HW249657   0.265   0.919   5.943
15884SOL     OW49658   2.569   4.709   4.302
15884SOL    HW149659   2.474   4.715   4.310
15884SOL    HW249660   2.602   4.791   4.338
15885SOL     OW49661   6.418   2.441  10.665
15885SOL    HW149662   6.361   2.475  10.733
15885SOL    HW249663   6.507   2.463  10.694
15886SOL     OW49664   6.385   2.063   1.487
15886SOL    HW149665   6.329   2.121   1.537
15886SOL    HW249666   6.357   1.975   1.512
15887SOL     OW49667   6.705   1.406   9.259
15887SOL    HW149668   6.667   1.425   9.173
15887SOL    HW249669   6.640   1.438   9.321
15888SOL     OW49670   5.117   4.919   1.424
15888SOL    HW149671   5.160   4.988   1.473
15888SOL    HW249672   5.112   4.845   1.485
15889SOL     OW49673   1.805   0.468   6.031
15889SOL    HW149674   1.834   0.413   6.103
15889SOL    HW249675   1.858   0.439   5.956
15890SOL     OW49676   1.146   1.946   3.820
15890SOL    HW149677   1.077   1.954   3.754
15890SOL    HW249678   1.121   1.869   3.872
15891SOL     OW49679  10.536  10.685   0.799
15891SOL    HW149680  10.468  10.734   0.753
15891SOL    HW249681  10.615  10.698   0.745
15892SOL     OW49682   5.648   3.497   4.796
15892SOL    HW149683   5.685   3.409   4.803
15892SOL    HW249684   5.669   3.539   4.879
15893SOL     OW49685   0.900   9.956   4.844
15893SOL    HW149686   0.862  10.024   4.788
15893SOL    HW249687   0.877   9.982   4.933
15894SOL     OW49688   5.683  10.752   8.712
15894SOL    HW149689   5.708  10.674   8.662
15894SOL    HW249690   5.763  10.804   8.717
15895SOL     OW49691   6.988   4.689   9.319
15895SOL    HW149692   6.936   4.650   9.390
15895SOL    HW249693   6.960   4.780   9.315
15896SOL     OW49694   2.150   5.510   7.713
15896SOL    HW149695   2.073   5.546   7.668
15896SOL    HW249696   2.155   5.559   7.795
15897SOL     OW49697   4.161   1.424   7.059
15897SOL    HW149698   4.134   1.502   7.011
15897SOL    HW249699   4.088   1.406   7.118
15898SOL     OW49700   1.278   8.856   6.812
15898SOL    HW149701   1.223   8.923   6.772
15898SOL    HW249702   1.221   8.779   6.821
15899SOL     OW49703   0.117  10.050  10.276
15899SOL    HW149704   0.096  10.097  10.195
15899SOL    HW249705   0.209  10.026  10.267
15900SOL     OW49706   4.642  10.077   9.617
15900SOL    HW149707   4.715  10.025   9.651
15900SOL    HW249708   4.574  10.012   9.597
15901SOL     OW49709  10.857   3.170   3.534
15901SOL    HW149710  10.868   3.260   3.563
15901SOL    HW249711  10.857   3.175   3.438
15902SOL     OW49712   0.823   7.014   4.751
15902SOL    HW149713   0.914   7.002   4.778
15902SOL    HW249714   0.790   7.085   4.806
15903SOL     OW49715   2.347   4.901   2.767
15903SOL    HW149716   2.322   4.992   2.783
15903SOL    HW249717   2.433   4.907   2.725
15904SOL     OW49718   3.840   1.250   1.479
15904SOL    HW149719   3.873   1.198   1.552
15904SOL    HW249720   3.816   1.185   1.412
15905SOL     OW49721   3.540   6.975   6.366
15905SOL    HW149722   3.614   6.928   6.326
15905SOL    HW249723   3.498   7.020   6.292
15906SOL     OW49724   0.802   6.040   4.580
15906SOL    HW149725   0.804   5.969   4.515
15906SOL    HW249726   0.892   6.043   4.613
15907SOL     OW49727   2.292   3.351   7.744
15907SOL    HW149728   2.342   3.270   7.752
15907SOL    HW249729   2.346   3.417   7.787
15908SOL     OW49730   4.117   1.857  10.721
15908SOL    HW149731   4.158   1.857  10.807
15908SOL    HW249732   4.058   1.932  10.722
15909SOL     OW49733   0.433  10.332   0.099
15909SOL    HW149734   0.404  10.241   0.110
15909SOL    HW249735   0.501  10.343   0.166
15910SOL     OW49736   5.493   9.842   3.678
15910SOL    HW149737   5.481   9.927   3.720
15910SOL    HW249738   5.570   9.804   3.721
15911SOL     OW49739   6.523   9.162   0.034
15911SOL    HW149740   6.562   9.082  -0.001
15911SOL    HW249741   6.536   9.155   0.129
15912SOL     OW49742   4.698   0.157   7.446
15912SOL    HW149743   4.671   0.068   7.422
15912SOL    HW249744   4.618   0.199   7.478
15913SOL     OW49745   6.833   9.562   1.929
15913SOL    HW149746   6.880   9.644   1.942
15913SOL    HW249747   6.741   9.584   1.943
15914SOL     OW49748   5.924   0.300   0.879
15914SOL    HW149749   5.857   0.250   0.926
15914SOL    HW249750   5.876   0.346   0.810
15915SOL     OW49751   7.214   6.799  10.222
15915SOL    HW149752   7.126   6.762  10.232
15915SOL    HW249753   7.222   6.815  10.128
15916SOL     OW49754   4.503   9.043   9.777
15916SOL    HW149755   4.547   9.011   9.856
15916SOL    HW249756   4.489   9.136   9.792
15917SOL     OW49757   2.396   9.457   9.365
15917SOL    HW149758   2.343   9.415   9.433
15917SOL    HW249759   2.394   9.550   9.386
15918SOL     OW49760   4.663  10.971  10.540
15918SOL    HW149761   4.598  11.028  10.581
15918SOL    HW249762   4.633  10.882  10.560
15919SOL     OW49763   5.917   8.601   8.715
15919SOL    HW149764   5.861   8.562   8.648
15919SOL    HW249765   5.916   8.538   8.787
15920SOL     OW49766   6.185   1.688   2.674
15920SOL    HW149767   6.175   1.640   2.756
15920SOL    HW249768   6.166   1.779   2.697
15921SOL     OW49769   8.903  10.306   9.282
15921SOL    HW149770   8.851  10.227   9.265
15921SOL    HW249771   8.992  10.273   9.296
15922SOL     OW49772   4.812   1.174   1.436
15922SOL    HW149773   4.791   1.244   1.498
15922SOL    HW249774   4.864   1.217   1.368
15923SOL     OW49775   1.868   3.454   5.491
15923SOL    HW149776   1.919   3.531   5.467
15923SOL    HW249777   1.782   3.470   5.453
15924SOL     OW49778   4.427   1.374   6.206
15924SOL    HW149779   4.384   1.288   6.209
15924SOL    HW249780   4.518   1.354   6.184
15925SOL     OW49781   2.151   8.942   3.527
15925SOL    HW149782   2.198   8.995   3.591
15925SOL    HW249783   2.213   8.872   3.504
15926SOL     OW49784   2.694  10.257   9.047
15926SOL    HW149785   2.780  10.237   9.083
15926SOL    HW249786   2.710  10.267   8.953
15927SOL     OW49787   4.084   0.810  10.474
15927SOL    HW149788   4.126   0.791  10.558
15927SOL    HW249789   4.043   0.895  10.486
15928SOL     OW49790   4.066   8.598   6.627
15928SOL    HW149791   4.010   8.656   6.678
15928SOL    HW249792   4.072   8.518   6.679
15929SOL     OW49793   5.649   5.453   2.027
15929SOL    HW149794   5.568   5.418   2.065
15929SOL    HW249795   5.633   5.547   2.020
15930SOL     OW49796   0.527   9.053   0.332
15930SOL    HW149797   0.568   9.049   0.245
15930SOL    HW249798   0.500   9.144   0.342
15931SOL     OW49799   6.899   3.064   9.564
15931SOL    HW149800   6.971   3.010   9.530
15931SOL    HW249801   6.826   3.045   9.505
15932SOL     OW49802   0.232  10.426   9.157
15932SOL    HW149803   0.245  10.352   9.216
15932SOL    HW249804   0.267  10.396   9.073
15933SOL     OW49805   9.115   3.582   0.205
15933SOL    HW149806   9.111   3.496   0.162
15933SOL    HW249807   9.158   3.565   0.288
15934SOL     OW49808   3.558   1.085   3.288
15934SOL    HW149809   3.583   1.018   3.352
15934SOL    HW249810   3.606   1.061   3.208
15935SOL     OW49811   7.076   0.653   0.074
15935SOL    HW149812   6.991   0.616   0.050
15935SOL    HW249813   7.114   0.684  -0.008
15936SOL     OW49814   3.490   5.931   4.957
15936SOL    HW149815   3.537   5.958   5.036
15936SOL    HW249816   3.559   5.913   4.893
15937SOL     OW49817   5.332   0.010  10.846
15937SOL    HW149818   5.296   0.098  10.848
15937SOL    HW249819   5.375   0.004  10.760
15938SOL     OW49820   5.642   1.688   8.331
15938SOL    HW149821   5.714   1.726   8.381
15938SOL    HW249822   5.575   1.668   8.396
15939SOL     OW49823   7.970  10.913   7.842
15939SOL    HW149824   8.001  10.917   7.751
15939SOL    HW249825   8.049  10.893   7.893
15940SOL     OW49826   7.604   1.330  11.055
15940SOL    HW149827   7.659   1.281  11.116
15940SOL    HW249828   7.575   1.264  10.992
15941SOL     OW49829   7.602   0.137   8.208
15941SOL    HW149830   7.601   0.170   8.118
15941SOL    HW249831   7.512   0.145   8.238
15942SOL     OW49832   5.994  10.035   9.109
15942SOL    HW149833   5.978   9.974   9.036
15942SOL    HW249834   6.089  10.047   9.110
15943SOL     OW49835   4.347   3.867  10.939
15943SOL    HW149836   4.310   3.930  10.877
15943SOL    HW249837   4.288   3.792  10.935
15944SOL     OW49838   0.933   8.610   8.977
15944SOL    HW149839   0.868   8.546   8.948
15944SOL    HW249840   1.011   8.589   8.926
15945SOL     OW49841   9.460   9.769   9.776
15945SOL    HW149842   9.375   9.757   9.733
15945SOL    HW249843   9.438   9.793   9.866
15946SOL     OW49844   6.076   3.523   0.971
15946SOL    HW149845   6.021   3.473   0.910
15946SOL    HW249846   6.040   3.503   1.057
15947SOL     OW49847   5.207   0.811   7.185
15947SOL    HW149848   5.240   0.856   7.262
15947SOL    HW249849   5.231   0.719   7.198
15948SOL     OW49850   3.777   8.181   8.422
15948SOL    HW149851   3.734   8.237   8.486
15948SOL    HW249852   3.708   8.121   8.391
15949SOL     OW49853   0.342   7.344   9.626
15949SOL    HW149854   0.289   7.393   9.563
15949SOL    HW249855   0.368   7.409   9.691
15950SOL     OW49856   8.889   2.719   9.923
15950SOL    HW149857   8.866   2.725   9.830
15950SOL    HW249858   8.837   2.645   9.955
15951SOL     OW49859   4.410   4.673   9.395
15951SOL    HW149860   4.343   4.708   9.336
15951SOL    HW249861   4.491   4.716   9.367
15952SOL     OW49862   7.367   0.232   4.488
15952SOL    HW149863   7.410   0.200   4.567
15952SOL    HW249864   7.343   0.152   4.440
15953SOL     OW49865   7.451   2.273   5.892
15953SOL    HW149866   7.514   2.228   5.835
15953SOL    HW249867   7.449   2.220   5.972
15954SOL     OW49868   7.095   7.864   0.707
15954SOL    HW149869   7.022   7.925   0.711
15954SOL    HW249870   7.146   7.881   0.786
15955SOL     OW49871  10.150   0.549  10.737
15955SOL    HW149872  10.219   0.491  10.768
15955SOL    HW249873  10.095   0.493  10.682
15956SOL     OW49874   6.909   2.522   0.924
15956SOL    HW149875   6.846   2.454   0.948
15956SOL    HW249876   6.992   2.475   0.915
15957SOL     OW49877   5.419   5.965   4.182
15957SOL    HW149878   5.451   5.900   4.118
15957SOL    HW249879   5.498   5.995   4.227
15958SOL     OW49880   3.471   6.135   1.738
15958SOL    HW149881   3.477   6.229   1.721
15958SOL    HW249882   3.547   6.116   1.793
15959SOL     OW49883   0.578   0.981   6.019
15959SOL    HW149884   0.595   0.888   6.036
15959SOL    HW249885   0.539   1.013   6.100
15960SOL     OW49886   1.604   0.647   7.048
15960SOL    HW149887   1.550   0.722   7.069
15960SOL    HW249888   1.613   0.650   6.952
15961SOL     OW49889   6.861   8.507   8.544
15961SOL    HW149890   6.923   8.576   8.520
15961SOL    HW249891   6.797   8.507   8.473
15962SOL     OW49892   9.765   1.830   1.312
15962SOL    HW149893   9.792   1.850   1.401
15962SOL    HW249894   9.841   1.854   1.258
15963SOL     OW49895   9.504   7.056  10.253
15963SOL    HW149896   9.582   7.049  10.197
15963SOL    HW249897   9.464   7.139  10.228
15964SOL     OW49898   9.869   2.593   9.009
15964SOL    HW149899   9.963   2.602   9.025
15964SOL    HW249900   9.856   2.627   8.920
15965SOL     OW49901  10.354   1.622   9.766
15965SOL    HW149902  10.296   1.600   9.693
15965SOL    HW249903  10.426   1.671   9.725
15966SOL     OW49904   8.175   3.433   7.044
15966SOL    HW149905   8.107   3.469   6.987
15966SOL    HW249906   8.255   3.438   6.991
15967SOL     OW49907   3.051   6.676   0.723
15967SOL    HW149908   3.056   6.768   0.748
15967SOL    HW249909   2.961   6.664   0.694
15968SOL     OW49910   8.477   9.212   2.575
15968SOL    HW149911   8.395   9.171   2.602
15968SOL    HW249912   8.500   9.271   2.646
15969SOL     OW49913   3.022   4.897   9.289
15969SOL    HW149914   2.992   4.821   9.338
15969SOL    HW249915   2.958   4.907   9.219
15970SOL     OW49916   4.682   8.699   2.633
15970SOL    HW149917   4.736   8.624   2.606
15970SOL    HW249918   4.731   8.740   2.704
15971SOL     OW49919   7.551   3.991  10.464
15971SOL    HW149920   7.465   4.033  10.460
15971SOL    HW249921   7.556   3.955  10.552
15972SOL     OW49922   3.736   8.960   8.541
15972SOL    HW149923   3.765   9.047   8.566
15972SOL    HW249924   3.817   8.910   8.529
15973SOL     OW49925   8.072   7.523   1.647
15973SOL    HW149926   8.035   7.512   1.734
15973SOL    HW249927   8.152   7.470   1.648
15974SOL     OW49928   6.040   6.674   1.756
15974SOL    HW149929   6.132   6.662   1.731
15974SOL    HW249930   6.003   6.586   1.750
15975SOL     OW49931   8.473   4.196   3.367
15975SOL    HW149932   8.413   4.232   3.301
15975SOL    HW249933   8.417   4.173   3.441
15976SOL     OW49934   3.744   2.581   9.849
15976SOL    HW149935   3.738   2.495   9.891
15976SOL    HW249936   3.654   2.603   9.826
15977SOL     OW49937   0.373  10.395   3.595
15977SOL    HW149938   0.385  10.347   3.677
15977SOL    HW249939   0.451  10.449   3.586
15978SOL     OW49940  10.545   9.859   4.506
15978SOL    HW149941  10.602   9.831   4.577
15978SOL    HW249942  10.483   9.787   4.495
15979SOL     OW49943   1.665   2.937   7.766
15979SOL    HW149944   1.655   2.859   7.711
15979SOL    HW249945   1.596   2.996   7.736
15980SOL     OW49946   4.380   1.914   0.375
15980SOL    HW149947   4.337   1.829   0.385
15980SOL    HW249948   4.308   1.977   0.369
15981SOL     OW49949   4.666   3.572  10.363
15981SOL    HW149950   4.630   3.489  10.395
15981SOL    HW249951   4.686   3.622  10.442
15982SOL     OW49952   0.703   2.292   6.718
15982SOL    HW149953   0.677   2.254   6.802
15982SOL    HW249954   0.785   2.247   6.696
15983SOL     OW49955   8.265   8.316   2.662
15983SOL    HW149956   8.356   8.341   2.646
15983SOL    HW249957   8.236   8.277   2.579
15984SOL     OW49958   3.615  10.647  11.031
15984SOL    HW149959   3.623  10.740  11.053
15984SOL    HW249960   3.676  10.634  10.958
15985SOL     OW49961   5.381   9.406   5.637
15985SOL    HW149962   5.374   9.403   5.541
15985SOL    HW249963   5.461   9.357   5.656
15986SOL     OW49964   9.228   2.201   8.137
15986SOL    HW149965   9.159   2.144   8.102
15986SOL    HW249966   9.258   2.156   8.216
15987SOL     OW49967   5.218   4.694   4.707
15987SOL    HW149968   5.237   4.717   4.798
15987SOL    HW249969   5.144   4.634   4.712
15988SOL     OW49970   2.393   3.167   8.653
15988SOL    HW149971   2.388   3.218   8.733
15988SOL    HW249972   2.304   3.135   8.638
15989SOL     OW49973  10.531   7.238   7.730
15989SOL    HW149974  10.494   7.153   7.705
15989SOL    HW249975  10.463   7.280   7.782
15990SOL     OW49976   8.576   4.967   3.392
15990SOL    HW149977   8.599   5.041   3.336
15990SOL    HW249978   8.501   4.926   3.348
15991SOL     OW49979   4.575   1.405  10.009
15991SOL    HW149980   4.511   1.340  10.037
15991SOL    HW249981   4.653   1.385  10.060
15992SOL     OW49982  10.670   6.358  10.128
15992SOL    HW149983  10.697   6.346  10.037
15992SOL    HW249984  10.616   6.281  10.146
15993SOL     OW49985   4.163   4.658   8.863
15993SOL    HW149986   4.254   4.638   8.839
15993SOL    HW249987   4.162   4.752   8.877
15994SOL     OW49988   6.371   5.757   8.234
15994SOL    HW149989   6.350   5.694   8.165
15994SOL    HW249990   6.450   5.721   8.275
15995SOL     OW49991   6.355   0.221   8.993
15995SOL    HW149992   6.321   0.286   8.932
15995SOL    HW249993   6.301   0.231   9.071
15996SOL     OW49994   8.155   0.971   9.834
15996SOL    HW149995   8.220   1.016   9.780
15996SOL    HW249996   8.131   1.035   9.901
15997SOL     OW49997   6.229   9.755  10.932
15997SOL    HW149998   6.209   9.698  11.006
15997SOL    HW249999   6.325   9.760  10.931
15998SOL     OW50000   6.094  10.269  10.123
15998SOL    HW150001   6.129  10.249  10.210
15998SOL    HW250002   6.115  10.191  10.071
15999SOL     OW50003   5.512   3.773   0.291
15999SOL    HW150004   5.504   3.697   0.349
15999SOL    HW250005   5.556   3.738   0.213
16000SOL     OW50006   7.116   8.673   0.186
16000SOL    HW150007   7.210   8.684   0.171
16000SOL    HW250008   7.077   8.754   0.155
16001SOL     OW50009   6.103   1.156   6.900
16001SOL    HW150010   6.194   1.185   6.907
16001SOL    HW250011   6.109   1.064   6.872
16002SOL     OW50012   6.477   0.693   1.906
16002SOL    HW150013   6.482   0.757   1.835
16002SOL    HW250014   6.422   0.735   1.972
16003SOL     OW50015   9.386   1.267   0.231
16003SOL    HW150016   9.327   1.307   0.167
16003SOL    HW250017   9.348   1.181   0.249
16004SOL     OW50018   5.746   9.610   9.657
16004SOL    HW150019   5.716   9.527   9.618
16004SOL    HW250020   5.769   9.665   9.582
16005SOL     OW50021   7.821   4.762   1.343
16005SOL    HW150022   7.887   4.829   1.357
16005SOL    HW250023   7.740   4.800   1.376
16006SOL     OW50024   3.052   3.121   6.524
16006SOL    HW150025   2.987   3.101   6.591
16006SOL    HW250026   3.131   3.074   6.552
16007SOL     OW50027   2.700   2.405   6.162
16007SOL    HW150028   2.784   2.449   6.149
16007SOL    HW250029   2.693   2.393   6.256
16008SOL     OW50030   6.646  10.441   3.071
16008SOL    HW150031   6.585  10.399   3.010
16008SOL    HW250032   6.661  10.528   3.033
16009SOL     OW50033   2.970   1.162   8.551
16009SOL    HW150034   3.039   1.227   8.560
16009SOL    HW250035   2.912   1.197   8.484
16010SOL     OW50036   2.036   2.228   1.912
16010SOL    HW150037   2.042   2.258   2.002
16010SOL    HW250038   1.942   2.217   1.896
16011SOL     OW50039   5.923   6.085   5.551
16011SOL    HW150040   5.991   6.083   5.618
16011SOL    HW250041   5.863   6.154   5.579
16012SOL     OW50042   7.775   9.120   4.520
16012SOL    HW150043   7.761   9.191   4.582
16012SOL    HW250044   7.692   9.112   4.473
16013SOL     OW50045   6.722   4.409  10.614
16013SOL    HW150046   6.786   4.392  10.683
16013SOL    HW250047   6.759   4.483  10.566
16014SOL     OW50048   9.597   1.616  10.330
16014SOL    HW150049   9.578   1.634  10.422
16014SOL    HW250050   9.609   1.521  10.326
16015SOL     OW50051   0.331   4.055   3.480
16015SOL    HW150052   0.249   4.050   3.529
16015SOL    HW250053   0.312   4.116   3.409
16016SOL     OW50054   2.578   9.866  10.604
16016SOL    HW150055   2.579   9.803  10.676
16016SOL    HW250056   2.669   9.894  10.595
16017SOL     OW50057   9.462   8.668   8.334
16017SOL    HW150058   9.428   8.686   8.421
16017SOL    HW250059   9.476   8.573   8.332
16018SOL     OW50060  11.098   0.052   2.036
16018SOL    HW150061  11.183   0.061   1.992
16018SOL    HW250062  11.037   0.098   1.979
16019SOL     OW50063   2.118  10.736   5.793
16019SOL    HW150064   2.129  10.831   5.795
16019SOL    HW250065   2.116  10.714   5.700
16020SOL     OW50066   1.220   1.045   1.955
16020SOL    HW150067   1.172   0.991   2.018
16020SOL    HW250068   1.205   1.135   1.984
16021SOL     OW50069   1.357   0.805   3.962
16021SOL    HW150070   1.412   0.792   3.885
16021SOL    HW250071   1.293   0.734   3.957
16022SOL     OW50072   8.959  10.653   4.873
16022SOL    HW150073   9.038  10.601   4.860
16022SOL    HW250074   8.893  10.611   4.818
16023SOL     OW50075   9.881   9.992   2.808
16023SOL    HW150076   9.892   9.967   2.716
16023SOL    HW250077   9.897   9.911   2.857
16024SOL     OW50078   8.969   2.152  10.415
16024SOL    HW150079   8.994   2.225  10.358
16024SOL    HW250080   8.903   2.188  10.474
16025SOL     OW50081   1.936   6.514   0.969
16025SOL    HW150082   1.956   6.560   0.887
16025SOL    HW250083   1.845   6.486   0.959
16026SOL     OW50084   1.820  10.508   5.056
16026SOL    HW150085   1.800  10.576   4.992
16026SOL    HW250086   1.735  10.469   5.077
16027SOL     OW50087   7.599   1.719   4.497
16027SOL    HW150088   7.593   1.812   4.516
16027SOL    HW250089   7.508   1.691   4.485
16028SOL     OW50090   7.907   3.076   9.677
16028SOL    HW150091   7.979   3.090   9.738
16028SOL    HW250092   7.893   3.161   9.635
16029SOL     OW50093   7.733  10.965   9.631
16029SOL    HW150094   7.785  11.028   9.681
16029SOL    HW250095   7.649  10.961   9.676
16030SOL     OW50096   6.674   7.580   3.649
16030SOL    HW150097   6.700   7.488   3.640
16030SOL    HW250098   6.744   7.619   3.701
16031SOL     OW50099   0.270   9.487   6.928
16031SOL    HW150100   0.290   9.518   7.016
16031SOL    HW250101   0.191   9.535   6.903
16032SOL     OW50102   5.703   5.795   1.143
16032SOL    HW150103   5.669   5.807   1.231
16032SOL    HW250104   5.629   5.761   1.092
16033SOL     OW50105   1.114   1.600   2.479
16033SOL    HW150106   1.019   1.590   2.479
16033SOL    HW250107   1.141   1.578   2.568
16034SOL     OW50108   5.757  10.675  10.844
16034SOL    HW150109   5.850  10.698  10.848
16034SOL    HW250110   5.711  10.754  10.874
16035SOL     OW50111   5.641   3.087   4.715
16035SOL    HW150112   5.579   3.048   4.776
16035SOL    HW250113   5.623   3.043   4.632
16036SOL     OW50114   9.184   1.789   3.084
16036SOL    HW150115   9.093   1.758   3.079
16036SOL    HW250116   9.186   1.869   3.031
16037SOL     OW50117   2.421   3.530  10.363
16037SOL    HW150118   2.469   3.580  10.429
16037SOL    HW250119   2.448   3.439  10.377
16038SOL     OW50120   9.939   7.908   2.947
16038SOL    HW150121  10.033   7.889   2.942
16038SOL    HW250122   9.914   7.884   3.036
16039SOL     OW50123   6.047   6.920   1.941
16039SOL    HW150124   6.128   6.909   1.990
16039SOL    HW250125   6.038   6.838   1.892
16040SOL     OW50126   2.879   5.082   1.071
16040SOL    HW150127   2.846   5.171   1.063
16040SOL    HW250128   2.907   5.059   0.982
16041SOL     OW50129   0.027   9.965   6.511
16041SOL    HW150130  -0.054   9.919   6.486
16041SOL    HW250131   0.070   9.984   6.427
16042SOL     OW50132   8.323   9.691   7.130
16042SOL    HW150133   8.410   9.655   7.110
16042SOL    HW250134   8.338   9.751   7.202
16043SOL     OW50135   1.737   6.637   0.171
16043SOL    HW150136   1.795   6.561   0.177
16043SOL    HW250137   1.749   6.683   0.254
16044SOL     OW50138   2.801   3.811   4.342
16044SOL    HW150139   2.772   3.896   4.309
16044SOL    HW250140   2.888   3.799   4.304
16045SOL     OW50141   6.833   0.297  10.549
16045SOL    HW150142   6.867   0.284  10.460
16045SOL    HW250143   6.808   0.209  10.577
16046SOL     OW50144  11.055  10.679   7.874
16046SOL    HW150145  11.110  10.627   7.932
16046SOL    HW250146  11.059  10.633   7.790
16047SOL     OW50147   7.895   6.934  10.360
16047SOL    HW150148   7.903   6.866  10.427
16047SOL    HW250149   7.805   6.966  10.369
16048SOL     OW50150   8.065   0.874  10.157
16048SOL    HW150151   8.064   0.882  10.252
16048SOL    HW250152   8.051   0.963  10.124
16049SOL     OW50153   7.783   9.454   4.194
16049SOL    HW150154   7.694   9.439   4.162
16049SOL    HW250155   7.774   9.460   4.289
16050SOL     OW50156   5.539   0.827   0.442
16050SOL    HW150157   5.467   0.785   0.395
16050SOL    HW250158   5.614   0.820   0.382
16051SOL     OW50159   1.309   1.633   1.455
16051SOL    HW150160   1.391   1.651   1.408
16051SOL    HW250161   1.240   1.655   1.392
16052SOL     OW50162   4.003   2.796   7.284
16052SOL    HW150163   3.986   2.716   7.334
16052SOL    HW250164   4.011   2.766   7.193
16053SOL     OW50165   0.118   2.582   9.692
16053SOL    HW150166   0.057   2.639   9.738
16053SOL    HW250167   0.088   2.584   9.601
16054SOL     OW50168   8.269   1.225   8.090
16054SOL    HW150169   8.274   1.320   8.090
16054SOL    HW250170   8.339   1.197   8.031
16055SOL     OW50171   4.404   0.811  10.577
16055SOL    HW150172   4.421   0.903  10.595
16055SOL    HW250173   4.454   0.792  10.497
16056SOL     OW50174   2.603   3.870   9.568
16056SOL    HW150175   2.660   3.944   9.547
16056SOL    HW250176   2.576   3.836   9.482
16057SOL     OW50177   9.676   5.162   4.067
16057SOL    HW150178   9.726   5.242   4.083
16057SOL    HW250179   9.585   5.191   4.065
16058SOL     OW50180   8.820   2.521   3.782
16058SOL    HW150181   8.786   2.445   3.734
16058SOL    HW250182   8.753   2.588   3.771
16059SOL     OW50183   7.155   3.038   2.476
16059SOL    HW150184   7.170   2.945   2.496
16059SOL    HW250185   7.121   3.075   2.557
16060SOL     OW50186   7.506   0.420   2.051
16060SOL    HW150187   7.600   0.433   2.042
16060SOL    HW250188   7.488   0.345   1.994
16061SOL     OW50189   6.034  10.233   6.282
16061SOL    HW150190   6.021  10.179   6.203
16061SOL    HW250191   6.121  10.272   6.270
16062SOL     OW50192   0.286  10.527   3.166
16062SOL    HW150193   0.201  10.530   3.122
16062SOL    HW250194   0.349  10.552   3.098
16063SOL     OW50195   0.628   0.811   6.738
16063SOL    HW150196   0.597   0.837   6.824
16063SOL    HW250197   0.553   0.768   6.697
16064SOL     OW50198   5.105   1.823   4.643
16064SOL    HW150199   5.183   1.774   4.670
16064SOL    HW250200   5.038   1.755   4.632
16065SOL     OW50201   8.483   3.860   0.561
16065SOL    HW150202   8.535   3.887   0.485
16065SOL    HW250203   8.542   3.872   0.635
16066SOL     OW50204   8.899   2.661   0.160
16066SOL    HW150205   8.919   2.678   0.252
16066SOL    HW250206   8.980   2.625   0.124
16067SOL     OW50207   6.526   3.856   4.380
16067SOL    HW150208   6.591   3.895   4.322
16067SOL    HW250209   6.535   3.904   4.462
16068SOL     OW50210   3.752   2.713   3.643
16068SOL    HW150211   3.841   2.677   3.650
16068SOL    HW250212   3.708   2.656   3.580
16069SOL     OW50213   0.605   9.098   7.081
16069SOL    HW150214   0.596   9.158   7.007
16069SOL    HW250215   0.698   9.103   7.105
16070SOL     OW50216   1.088   0.314   1.908
16070SOL    HW150217   1.179   0.289   1.892
16070SOL    HW250218   1.056   0.248   1.970
16071SOL     OW50219   5.982   6.443   2.530
16071SOL    HW150220   6.048   6.375   2.516
16071SOL    HW250221   5.987   6.462   2.623
16072SOL     OW50222   1.979   1.418   4.317
16072SOL    HW150223   1.893   1.384   4.293
16072SOL    HW250224   1.971   1.443   4.408
16073SOL     OW50225   2.308   2.002   2.171
16073SOL    HW150226   2.224   1.961   2.191
16073SOL    HW250227   2.367   1.973   2.241
16074SOL     OW50228   2.899  10.853   8.910
16074SOL    HW150229   2.877  10.855   8.817
16074SOL    HW250230   2.967  10.920   8.920
16075SOL     OW50231   2.974  10.545  10.082
16075SOL    HW150232   2.955  10.603  10.156
16075SOL    HW250233   2.979  10.458  10.120
16076SOL     OW50234   2.816   2.953   2.422
16076SOL    HW150235   2.823   2.891   2.495
16076SOL    HW250236   2.895   2.938   2.370
16077SOL     OW50237   8.088   7.778   3.797
16077SOL    HW150238   8.167   7.747   3.842
16077SOL    HW250239   8.047   7.839   3.858
16078SOL     OW50240   7.989  10.528   0.345
16078SOL    HW150241   7.991  10.444   0.299
16078SOL    HW250242   8.018  10.507   0.434
16079SOL     OW50243   9.936   1.869   4.338
16079SOL    HW150244   9.918   1.960   4.315
16079SOL    HW250245   9.902   1.818   4.264
16080SOL     OW50246   0.462   6.222   0.094
16080SOL    HW150247   0.527   6.281   0.132
16080SOL    HW250248   0.460   6.245   0.001
16081SOL     OW50249   6.993  10.400   2.873
16081SOL    HW150250   6.927  10.447   2.821
16081SOL    HW250251   6.943  10.337   2.924
16082SOL     OW50252   4.494   3.748   1.363
16082SOL    HW150253   4.476   3.677   1.425
16082SOL    HW250254   4.424   3.741   1.298
16083SOL     OW50255   2.739   1.865   4.259
16083SOL    HW150256   2.717   1.773   4.241
16083SOL    HW250257   2.696   1.914   4.189
16084SOL     OW50258  11.066  11.094   2.311
16084SOL    HW150259  11.079  11.153   2.237
16084SOL    HW250260  10.971  11.093   2.325
16085SOL     OW50261   1.181   4.550   0.265
16085SOL    HW150262   1.093   4.545   0.302
16085SOL    HW250263   1.171   4.605   0.187
16086SOL     OW50264   0.146   7.238   6.618
16086SOL    HW150265   0.238   7.239   6.642
16086SOL    HW250266   0.099   7.219   6.699
16087SOL     OW50267   9.047   0.478   4.642
16087SOL    HW150268   9.112   0.546   4.623
16087SOL    HW250269   9.095   0.412   4.692
16088SOL     OW50270   0.656   2.631   1.447
16088SOL    HW150271   0.584   2.579   1.484
16088SOL    HW250272   0.624   2.721   1.448
16089SOL     OW50273   7.571   7.546   5.652
16089SOL    HW150274   7.485   7.563   5.615
16089SOL    HW250275   7.577   7.450   5.656
16090SOL     OW50276   0.870   3.230   2.380
16090SOL    HW150277   0.811   3.156   2.394
16090SOL    HW250278   0.941   3.216   2.442
16091SOL     OW50279   4.735   7.175   0.596
16091SOL    HW150280   4.658   7.223   0.626
16091SOL    HW250281   4.761   7.121   0.671
16092SOL     OW50282   6.600   4.848   5.705
16092SOL    HW150283   6.577   4.932   5.745
16092SOL    HW250284   6.696   4.844   5.710
16093SOL     OW50285   7.969   5.406   2.034
16093SOL    HW150286   7.972   5.406   1.938
16093SOL    HW250287   7.876   5.394   2.055
16094SOL     OW50288   5.873   4.416   1.015
16094SOL    HW150289   5.934   4.353   1.055
16094SOL    HW250290   5.838   4.466   1.088
16095SOL     OW50291   4.682   1.140   6.449
16095SOL    HW150292   4.631   1.094   6.515
16095SOL    HW250293   4.757   1.176   6.496
16096SOL     OW50294  10.390   3.063   4.178
16096SOL    HW150295  10.428   3.147   4.201
16096SOL    HW250296  10.340   3.080   4.098
16097SOL     OW50297   2.236  10.514   8.294
16097SOL    HW150298   2.323  10.490   8.325
16097SOL    HW250299   2.183  10.437   8.311
16098SOL     OW50300   1.521   4.306   3.200
16098SOL    HW150301   1.555   4.225   3.161
16098SOL    HW250302   1.440   4.279   3.243
16099SOL     OW50303   6.720   3.467  11.074
16099SOL    HW150304   6.673   3.492  11.153
16099SOL    HW250305   6.811   3.490  11.092
16100SOL     OW50306   1.510   3.530   8.783
16100SOL    HW150307   1.482   3.613   8.744
16100SOL    HW250308   1.581   3.500   8.726
16101SOL     OW50309   1.429   7.439   5.058
16101SOL    HW150310   1.363   7.447   5.126
16101SOL    HW250311   1.470   7.354   5.074
16102SOL     OW50312   9.523   8.805   3.440
16102SOL    HW150313   9.546   8.746   3.368
16102SOL    HW250314   9.592   8.791   3.504
16103SOL     OW50315   3.972  11.060   5.804
16103SOL    HW150316   4.003  10.971   5.820
16103SOL    HW250317   4.042  11.101   5.752
16104SOL     OW50318   4.376   1.554   9.876
16104SOL    HW150319   4.364   1.493   9.803
16104SOL    HW250320   4.455   1.523   9.920
16105SOL     OW50321   9.135   8.743   2.859
16105SOL    HW150322   9.207   8.785   2.906
16105SOL    HW250323   9.175   8.666   2.818
16106SOL     OW50324   1.326   0.207   6.211
16106SOL    HW150325   1.263   0.267   6.251
16106SOL    HW250326   1.379   0.175   6.284
16107SOL     OW50327   4.014   2.228   2.869
16107SOL    HW150328   4.005   2.186   2.783
16107SOL    HW250329   3.935   2.281   2.878
16108SOL     OW50330   0.060   8.492   3.265
16108SOL    HW150331   0.058   8.452   3.178
16108SOL    HW250332  -0.032   8.514   3.282
16109SOL     OW50333   8.578  10.156   9.433
16109SOL    HW150334   8.504  10.095   9.442
16109SOL    HW250335   8.539  10.243   9.442
16110SOL     OW50336   6.355   5.480  10.804
16110SOL    HW150337   6.351   5.490  10.709
16110SOL    HW250338   6.420   5.411  10.817
16111SOL     OW50339   0.458   3.334   7.446
16111SOL    HW150340   0.536   3.374   7.407
16111SOL    HW250341   0.448   3.378   7.530
16112SOL     OW50342   2.002   1.151   3.376
16112SOL    HW150343   1.988   1.218   3.442
16112SOL    HW250344   1.994   1.197   3.292
16113SOL     OW50345   2.387  10.057  10.891
16113SOL    HW150346   2.461  10.041  10.949
16113SOL    HW250347   2.326   9.986  10.910
16114SOL     OW50348   4.974   5.501   3.241
16114SOL    HW150349   4.940   5.590   3.231
16114SOL    HW250350   4.976   5.466   3.152
16115SOL     OW50351   6.197   8.088   0.306
16115SOL    HW150352   6.110   8.087   0.267
16115SOL    HW250353   6.255   8.060   0.235
16116SOL     OW50354   6.626   9.164   6.564
16116SOL    HW150355   6.620   9.189   6.656
16116SOL    HW250356   6.699   9.216   6.530
16117SOL     OW50357   8.053  10.079   6.875
16117SOL    HW150358   8.089  10.037   6.953
16117SOL    HW250359   8.098  10.163   6.870
16118SOL     OW50360   7.247   6.180   1.794
16118SOL    HW150361   7.169   6.192   1.739
16118SOL    HW250362   7.256   6.085   1.803
16119SOL     OW50363   5.156   2.016   5.033
16119SOL    HW150364   5.063   2.027   5.014
16119SOL    HW250365   5.162   1.928   5.070
16120SOL     OW50366   5.166   9.541   2.860
16120SOL    HW150367   5.243   9.531   2.803
16120SOL    HW250368   5.201   9.578   2.941
16121SOL     OW50369   7.010  10.275   3.598
16121SOL    HW150370   7.039  10.188   3.626
16121SOL    HW250371   7.015  10.272   3.502
16122SOL     OW50372   3.921  10.993   9.478
16122SOL    HW150373   3.995  11.011   9.536
16122SOL    HW250374   3.930  11.056   9.406
16123SOL     OW50375   8.113  10.584   4.134
16123SOL    HW150376   8.062  10.637   4.073
16123SOL    HW250377   8.105  10.629   4.218
16124SOL     OW50378  10.670   7.641   8.620
16124SOL    HW150379  10.579   7.619   8.600
16124SOL    HW250380  10.682   7.729   8.584
16125SOL     OW50381   7.405   7.693   8.069
16125SOL    HW150382   7.417   7.780   8.031
16125SOL    HW250383   7.479   7.641   8.035
16126SOL     OW50384   7.233   7.732  10.719
16126SOL    HW150385   7.286   7.719  10.797
16126SOL    HW250386   7.292   7.712  10.646
16127SOL     OW50387   5.345   9.926   2.387
16127SOL    HW150388   5.335   9.852   2.447
16127SOL    HW250389   5.418   9.901   2.329
16128SOL     OW50390   3.924   3.716   3.666
16128SOL    HW150391   3.962   3.634   3.697
16128SOL    HW250392   3.927   3.774   3.741
16129SOL     OW50393   8.261   7.236   1.113
16129SOL    HW150394   8.314   7.239   1.033
16129SOL    HW250395   8.236   7.327   1.129
16130SOL     OW50396   7.065   2.216   2.931
16130SOL    HW150397   7.124   2.256   2.867
16130SOL    HW250398   7.000   2.283   2.949
16131SOL     OW50399   2.277   3.478  10.056
16131SOL    HW150400   2.333   3.529   9.997
16131SOL    HW250401   2.240   3.409  10.000
16132SOL     OW50402   8.929   1.584   8.371
16132SOL    HW150403   8.934   1.504   8.424
16132SOL    HW250404   8.847   1.575   8.322
16133SOL     OW50405   5.853   8.197   1.525
16133SOL    HW150406   5.928   8.194   1.466
16133SOL    HW250407   5.810   8.112   1.513
16134SOL     OW50408   2.793   7.641   8.000
16134SOL    HW150409   2.723   7.640   7.935
16134SOL    HW250410   2.810   7.734   8.016
16135SOL     OW50411   1.146   0.485  11.007
16135SOL    HW150412   1.161   0.534  11.088
16135SOL    HW250413   1.070   0.527  10.967
16136SOL     OW50414   1.944   4.107  10.684
16136SOL    HW150415   2.010   4.066  10.627
16136SOL    HW250416   1.861   4.068  10.656
16137SOL     OW50417   5.007   1.697   1.300
16137SOL    HW150418   4.916   1.727   1.302
16137SOL    HW250419   5.011   1.638   1.224
16138SOL     OW50420   0.259  10.274   0.899
16138SOL    HW150421   0.275  10.238   0.811
16138SOL    HW250422   0.268  10.368   0.888
16139SOL     OW50423   7.962   1.709   1.070
16139SOL    HW150424   7.995   1.625   1.102
16139SOL    HW250425   8.036   1.769   1.081
16140SOL     OW50426   5.959   1.282   0.317
16140SOL    HW150427   5.960   1.375   0.297
16140SOL    HW250428   5.900   1.244   0.251
16141SOL     OW50429   1.683   6.116   3.051
16141SOL    HW150430   1.779   6.113   3.048
16141SOL    HW250431   1.656   6.025   3.038
16142SOL     OW50432   4.997   2.745   9.716
16142SOL    HW150433   4.996   2.840   9.726
16142SOL    HW250434   5.087   2.719   9.736
16143SOL     OW50435   0.957   2.302   3.384
16143SOL    HW150436   1.013   2.333   3.312
16143SOL    HW250437   0.966   2.206   3.382
16144SOL     OW50438   6.259   1.376   9.686
16144SOL    HW150439   6.238   1.466   9.711
16144SOL    HW250440   6.258   1.377   9.590
16145SOL     OW50441   7.800   5.115   6.090
16145SOL    HW150442   7.738   5.126   6.018
16145SOL    HW250443   7.762   5.045   6.143
16146SOL     OW50444   4.428   0.240   8.650
16146SOL    HW150445   4.389   0.259   8.735
16146SOL    HW250446   4.450   0.147   8.654
16147SOL     OW50447   8.050   7.343   8.123
16147SOL    HW150448   8.134   7.350   8.076
16147SOL    HW250449   8.028   7.250   8.117
16148SOL     OW50450   5.727  11.035   4.066
16148SOL    HW150451   5.814  11.075   4.065
16148SOL    HW250452   5.728  10.977   4.141
16149SOL     OW50453   5.753   4.071   1.806
16149SOL    HW150454   5.789   4.006   1.866
16149SOL    HW250455   5.754   4.152   1.856
16150SOL     OW50456   3.843   5.274   6.696
16150SOL    HW150457   3.803   5.317   6.771
16150SOL    HW250458   3.937   5.283   6.710
16151SOL     OW50459   4.950   2.421   3.933
16151SOL    HW150460   4.908   2.337   3.911
16151SOL    HW250461   4.880   2.474   3.970
16152SOL     OW50462   2.242   4.476   0.986
16152SOL    HW150463   2.323   4.492   0.938
16152SOL    HW250464   2.192   4.557   0.977
16153SOL     OW50465   4.194   3.835   4.021
16153SOL    HW150466   4.246   3.905   4.059
16153SOL    HW250467   4.250   3.758   4.027
16154SOL     OW50468   9.733  10.652   4.707
16154SOL    HW150469   9.732  10.651   4.611
16154SOL    HW250470   9.649  10.614   4.732
16155SOL     OW50471   6.010   4.609   1.794
16155SOL    HW150472   5.952   4.540   1.761
16155SOL    HW250473   5.981   4.688   1.749
16156SOL     OW50474   5.777   2.418   5.698
16156SOL    HW150475   5.772   2.480   5.771
16156SOL    HW250476   5.708   2.445   5.638
16157SOL     OW50477   3.656   4.408   8.197
16157SOL    HW150478   3.698   4.442   8.276
16157SOL    HW250479   3.694   4.459   8.125
16158SOL     OW50480   3.880   0.286  10.343
16158SOL    HW150481   3.918   0.200  10.360
16158SOL    HW250482   3.955   0.346  10.345
16159SOL     OW50483   1.120   3.597   3.875
16159SOL    HW150484   1.138   3.539   3.949
16159SOL    HW250485   1.032   3.631   3.891
16160SOL     OW50486  10.266   9.504  10.207
16160SOL    HW150487  10.320   9.424  10.201
16160SOL    HW250488  10.272   9.543  10.120
16161SOL     OW50489   6.588   0.729   7.757
16161SOL    HW150490   6.546   0.643   7.758
16161SOL    HW250491   6.643   0.728   7.678
16162SOL     OW50492   5.226   9.638   7.249
16162SOL    HW150493   5.197   9.687   7.326
16162SOL    HW250494   5.297   9.582   7.281
16163SOL     OW50495   0.962   6.224   4.997
16163SOL    HW150496   0.925   6.177   5.072
16163SOL    HW250497   1.039   6.173   4.972
16164SOL     OW50498   4.003   5.179   6.008
16164SOL    HW150499   3.999   5.137   6.094
16164SOL    HW250500   4.068   5.248   6.017
16165SOL     OW50501  10.822  10.801  10.529
16165SOL    HW150502  10.835  10.795  10.434
16165SOL    HW250503  10.837  10.893  10.549
16166SOL     OW50504   9.916  11.078   6.349
16166SOL    HW150505   9.904  11.078   6.254
16166SOL    HW250506   9.936  10.987   6.370
16167SOL     OW50507   1.826  10.866   5.062
16167SOL    HW150508   1.793  10.865   5.152
16167SOL    HW250509   1.748  10.880   5.008
16168SOL     OW50510   8.268   3.480   1.349
16168SOL    HW150511   8.339   3.426   1.383
16168SOL    HW250512   8.302   3.516   1.267
16169SOL     OW50513   0.703   0.386   1.913
16169SOL    HW150514   0.705   0.416   1.822
16169SOL    HW250515   0.711   0.290   1.907
16170SOL     OW50516   3.365   3.038   3.115
16170SOL    HW150517   3.307   2.985   3.169
16170SOL    HW250518   3.429   3.074   3.176
16171SOL     OW50519   4.652   4.059   7.417
16171SOL    HW150520   4.644   4.081   7.510
16171SOL    HW250521   4.634   3.965   7.413
16172SOL     OW50522   2.233   0.709  10.201
16172SOL    HW150523   2.268   0.653  10.131
16172SOL    HW250524   2.153   0.746  10.164
16173SOL     OW50525   0.373   4.601   1.508
16173SOL    HW150526   0.371   4.695   1.523
16173SOL    HW250527   0.430   4.566   1.576
16174SOL     OW50528   0.161   8.690  10.252
16174SOL    HW150529   0.120   8.752  10.311
16174SOL    HW250530   0.096   8.620  10.243
16175SOL     OW50531   6.848   2.429   5.679
16175SOL    HW150532   6.757   2.410   5.702
16175SOL    HW250533   6.844   2.512   5.632
16176SOL     OW50534   2.691   4.943   1.291
16176SOL    HW150535   2.750   4.969   1.220
16176SOL    HW250536   2.624   5.011   1.293
16177SOL     OW50537  10.887   3.581   2.938
16177SOL    HW150538  10.807   3.625   2.911
16177SOL    HW250539  10.954   3.650   2.939
16178SOL     OW50540   6.657  10.797   8.147
16178SOL    HW150541   6.569  10.814   8.114
16178SOL    HW250542   6.649  10.716   8.197
16179SOL     OW50543   9.748  11.073   8.305
16179SOL    HW150544   9.656  11.062   8.329
16179SOL    HW250545   9.777  11.149   8.355
16180SOL     OW50546   7.757  10.102   0.089
16180SOL    HW150547   7.677  10.049   0.091
16180SOL    HW250548   7.757  10.143   0.003
16181SOL     OW50549   6.603   2.730   0.538
16181SOL    HW150550   6.551   2.788   0.482
16181SOL    HW250551   6.645   2.670   0.476
16182SOL     OW50552   4.967   2.998   3.500
16182SOL    HW150553   4.888   3.049   3.483
16182SOL    HW250554   4.992   3.021   3.589
16183SOL     OW50555   3.247   2.273   0.023
16183SOL    HW150556   3.187   2.222   0.078
16183SOL    HW250557   3.234   2.239  -0.065
16184SOL     OW50558   5.900   3.504   2.992
16184SOL    HW150559   5.864   3.569   3.052
16184SOL    HW250560   5.931   3.433   3.048
16185SOL     OW50561   8.275   4.439   1.133
16185SOL    HW150562   8.369   4.427   1.118
16185SOL    HW250563   8.237   4.352   1.119
16186SOL     OW50564   9.616   6.471   5.585
16186SOL    HW150565   9.689   6.459   5.524
16186SOL    HW250566   9.567   6.389   5.580
16187SOL     OW50567   4.302  10.446   9.826
16187SOL    HW150568   4.246  10.382   9.870
16187SOL    HW250569   4.389  10.406   9.827
16188SOL     OW50570   1.113   0.623  10.244
16188SOL    HW150571   1.111   0.611  10.339
16188SOL    HW250572   1.045   0.688  10.226
16189SOL     OW50573  10.726   0.160   3.125
16189SOL    HW150574  10.753   0.251   3.117
16189SOL    HW250575  10.642   0.155   3.079
16190SOL     OW50576   6.534   6.727   8.040
16190SOL    HW150577   6.442   6.747   8.055
16190SOL    HW250578   6.581   6.781   8.103
16191SOL     OW50579   2.586   1.009   7.685
16191SOL    HW150580   2.570   1.022   7.591
16191SOL    HW250581   2.618   1.093   7.716
16192SOL     OW50582   7.150   2.460   3.942
16192SOL    HW150583   7.138   2.371   3.907
16192SOL    HW250584   7.131   2.451   4.035
16193SOL     OW50585   2.705   8.566   6.560
16193SOL    HW150586   2.632   8.512   6.531
16193SOL    HW250587   2.770   8.558   6.489
16194SOL     OW50588   2.343   5.471   9.982
16194SOL    HW150589   2.318   5.414   9.909
16194SOL    HW250590   2.427   5.509   9.955
16195SOL     OW50591   3.831   9.977   8.200
16195SOL    HW150592   3.909   9.977   8.255
16195SOL    HW250593   3.847  10.046   8.136
16196SOL     OW50594   5.802   5.039   4.426
16196SOL    HW150595   5.841   4.974   4.485
16196SOL    HW250596   5.842   5.021   4.341
16197SOL     OW50597   2.179   6.432   0.281
16197SOL    HW150598   2.262   6.391   0.256
16197SOL    HW250599   2.200   6.525   0.290
16198SOL     OW50600   4.631   9.441   5.041
16198SOL    HW150601   4.592   9.482   5.118
16198SOL    HW250602   4.689   9.508   5.004
16199SOL     OW50603   5.635   9.845  10.032
16199SOL    HW150604   5.588   9.792  10.096
16199SOL    HW250605   5.573   9.858   9.960
16200SOL     OW50606   9.094   9.229   2.589
16200SOL    HW150607   9.076   9.253   2.498
16200SOL    HW250608   9.189   9.217   2.592
16201SOL     OW50609   9.836   3.847   7.950
16201SOL    HW150610   9.813   3.901   7.874
16201SOL    HW250611   9.917   3.886   7.984
16202SOL     OW50612   2.635   9.163   4.655
16202SOL    HW150613   2.653   9.245   4.701
16202SOL    HW250614   2.632   9.187   4.562
16203SOL     OW50615   2.960   0.705   9.190
16203SOL    HW150616   3.004   0.769   9.134
16203SOL    HW250617   2.922   0.756   9.261
16204SOL     OW50618   5.179   3.718   5.099
16204SOL    HW150619   5.200   3.713   5.192
16204SOL    HW250620   5.207   3.633   5.063
16205SOL     OW50621   9.572  10.496   5.886
16205SOL    HW150622   9.567  10.457   5.798
16205SOL    HW250623   9.605  10.426   5.941
16206SOL     OW50624   5.808   2.301   4.116
16206SOL    HW150625   5.745   2.229   4.118
16206SOL    HW250626   5.815   2.329   4.207
16207SOL     OW50627   2.947   2.181   8.391
16207SOL    HW150628   2.982   2.138   8.469
16207SOL    HW250629   3.001   2.148   8.319
16208SOL     OW50630   6.363   1.844   5.033
16208SOL    HW150631   6.412   1.833   5.114
16208SOL    HW250632   6.372   1.760   4.988
16209SOL     OW50633   4.228   2.110   8.140
16209SOL    HW150634   4.224   2.017   8.118
16209SOL    HW250635   4.147   2.146   8.104
16210SOL     OW50636   7.748   3.035   1.970
16210SOL    HW150637   7.799   3.095   2.024
16210SOL    HW250638   7.708   2.974   2.032
16211SOL     OW50639   0.267   2.245   7.985
16211SOL    HW150640   0.332   2.193   8.032
16211SOL    HW250641   0.258   2.201   7.900
16212SOL     OW50642   9.704   7.903   7.413
16212SOL    HW150643   9.628   7.858   7.376
16212SOL    HW250644   9.738   7.956   7.341
16213SOL     OW50645   4.202   4.665   1.108
16213SOL    HW150646   4.225   4.674   1.200
16213SOL    HW250647   4.194   4.570   1.095
16214SOL     OW50648   9.890   4.739   1.521
16214SOL    HW150649   9.933   4.683   1.456
16214SOL    HW250650   9.797   4.727   1.504
16215SOL     OW50651   0.092   1.441   2.189
16215SOL    HW150652   0.148   1.516   2.169
16215SOL    HW250653   0.031   1.473   2.255
16216SOL     OW50654   6.353   2.237   4.071
16216SOL    HW150655   6.354   2.204   4.161
16216SOL    HW250656   6.431   2.198   4.030
16217SOL     OW50657   6.693   2.233  10.008
16217SOL    HW150658   6.739   2.253  10.089
16217SOL    HW250659   6.763   2.218   9.944
16218SOL     OW50660   5.535   9.072   9.014
16218SOL    HW150661   5.445   9.084   8.985
16218SOL    HW250662   5.547   8.977   9.017
16219SOL     OW50663   7.222  10.459   5.089
16219SOL    HW150664   7.138  10.489   5.123
16219SOL    HW250665   7.226  10.494   5.000
16220SOL     OW50666   9.252   0.930   2.601
16220SOL    HW150667   9.181   0.885   2.647
16220SOL    HW250668   9.295   0.861   2.550
16221SOL     OW50669   5.653   2.050   4.392
16221SOL    HW150670   5.573   2.052   4.340
16221SOL    HW250671   5.637   1.983   4.458
16222SOL     OW50672   4.222  10.610   7.853
16222SOL    HW150673   4.259  10.523   7.868
16222SOL    HW250674   4.184  10.605   7.765
16223SOL     OW50675   7.441   0.776  10.761
16223SOL    HW150676   7.391   0.823  10.694
16223SOL    HW250677   7.523   0.824  10.768
16224SOL     OW50678   6.190  10.200   1.457
16224SOL    HW150679   6.105  10.157   1.455
16224SOL    HW250680   6.217  10.204   1.365
16225SOL     OW50681   9.903   9.249   2.670
16225SOL    HW150682   9.907   9.193   2.592
16225SOL    HW250683   9.925   9.336   2.637
16226SOL     OW50684   4.724   5.064  10.356
16226SOL    HW150685   4.817   5.044  10.366
16226SOL    HW250686   4.684   4.981  10.330
16227SOL     OW50687   5.910  10.732   9.025
16227SOL    HW150688   5.915  10.694   8.937
16227SOL    HW250689   5.857  10.670   9.075
16228SOL     OW50690  11.059   0.601   0.189
16228SOL    HW150691  10.984   0.541   0.184
16228SOL    HW250692  11.132   0.550   0.153
16229SOL     OW50693   5.786   7.143  10.643
16229SOL    HW150694   5.811   7.223  10.688
16229SOL    HW250695   5.711   7.168  10.589
16230SOL     OW50696   0.288   1.180   7.768
16230SOL    HW150697   0.363   1.211   7.817
16230SOL    HW250698   0.310   1.199   7.676
16231SOL     OW50699   6.878   2.401   3.395
16231SOL    HW150700   6.971   2.397   3.372
16231SOL    HW250701   6.837   2.332   3.343
16232SOL     OW50702  10.863   1.806   5.475
16232SOL    HW150703  10.872   1.746   5.549
16232SOL    HW250704  10.906   1.761   5.402
16233SOL     OW50705   0.700  10.213   2.139
16233SOL    HW150706   0.774  10.196   2.081
16233SOL    HW250707   0.734  10.276   2.203
16234SOL     OW50708   6.546   0.323   7.566
16234SOL    HW150709   6.575   0.393   7.624
16234SOL    HW250710   6.510   0.368   7.489
16235SOL     OW50711  10.437   6.735   0.101
16235SOL    HW150712  10.448   6.650   0.057
16235SOL    HW250713  10.375   6.717   0.172
16236SOL     OW50714   8.079   1.879   3.691
16236SOL    HW150715   8.091   1.828   3.771
16236SOL    HW250716   7.999   1.929   3.706
16237SOL     OW50717   8.590   3.588  10.614
16237SOL    HW150718   8.526   3.659  10.607
16237SOL    HW250719   8.663   3.626  10.663
16238SOL     OW50720   3.793   1.343   8.513
16238SOL    HW150721   3.792   1.355   8.418
16238SOL    HW250722   3.774   1.250   8.525
16239SOL     OW50723   7.744   5.187   9.929
16239SOL    HW150724   7.824   5.230   9.899
16239SOL    HW250725   7.775   5.115   9.984
16240SOL     OW50726   2.870   5.271  10.639
16240SOL    HW150727   2.960   5.303  10.639
16240SOL    HW250728   2.819   5.342  10.600
16241SOL     OW50729   4.731   8.031   9.217
16241SOL    HW150730   4.708   8.051   9.126
16241SOL    HW250731   4.809   8.083   9.234
16242SOL     OW50732   7.330   0.287   9.956
16242SOL    HW150733   7.396   0.350   9.929
16242SOL    HW250734   7.380   0.216   9.996
16243SOL     OW50735   2.068   4.574   2.704
16243SOL    HW150736   2.045   4.666   2.715
16243SOL    HW250737   2.155   4.566   2.743
16244SOL     OW50738   5.749   0.580   8.628
16244SOL    HW150739   5.687   0.649   8.604
16244SOL    HW250740   5.833   0.625   8.637
16245SOL     OW50741   6.667   3.289   1.411
16245SOL    HW150742   6.631   3.234   1.341
16245SOL    HW250743   6.617   3.370   1.405
16246SOL     OW50744   7.617   7.736   2.384
16246SOL    HW150745   7.531   7.695   2.372
16246SOL    HW250746   7.625   7.747   2.478
16247SOL     OW50747   8.431   6.679   4.644
16247SOL    HW150748   8.500   6.695   4.708
16247SOL    HW250749   8.417   6.584   4.648
16248SOL     OW50750   9.664   7.008   2.526
16248SOL    HW150751   9.609   7.044   2.595
16248SOL    HW250752   9.754   7.023   2.556
16249SOL     OW50753   5.212   8.134   6.095
16249SOL    HW150754   5.194   8.177   6.011
16249SOL    HW250755   5.147   8.170   6.155
16250SOL     OW50756   0.500   3.417   4.760
16250SOL    HW150757   0.585   3.456   4.782
16250SOL    HW250758   0.471   3.466   4.683
16251SOL     OW50759  10.686   9.579   0.749
16251SOL    HW150760  10.615   9.553   0.690
16251SOL    HW250761  10.712   9.497   0.792
16252SOL     OW50762   5.330   1.603   2.799
16252SOL    HW150763   5.373   1.603   2.884
16252SOL    HW250764   5.302   1.693   2.786
16253SOL     OW50765   6.674   6.553   4.012
16253SOL    HW150766   6.674   6.641   3.974
16253SOL    HW250767   6.642   6.565   4.101
16254SOL     OW50768   3.055   1.951   4.901
16254SOL    HW150769   3.148   1.966   4.882
16254SOL    HW250770   3.055   1.893   4.977
16255SOL     OW50771   0.457   8.291   0.082
16255SOL    HW150772   0.539   8.304   0.034
16255SOL    HW250773   0.484   8.256   0.167
16256SOL     OW50774   1.474   2.950   4.992
16256SOL    HW150775   1.385   2.958   4.958
16256SOL    HW250776   1.464   2.919   5.082
16257SOL     OW50777   6.764  10.167   1.727
16257SOL    HW150778   6.745  10.151   1.819
16257SOL    HW250779   6.735  10.087   1.682
16258SOL     OW50780   2.596   2.625   7.707
16258SOL    HW150781   2.605   2.542   7.754
16258SOL    HW250782   2.652   2.686   7.754
16259SOL     OW50783  10.446   9.198   4.953
16259SOL    HW150784  10.492   9.281   4.961
16259SOL    HW250785  10.434   9.186   4.858
16260SOL     OW50786   9.375   0.206   5.012
16260SOL    HW150787   9.405   0.193   4.922
16260SOL    HW250788   9.439   0.158   5.065
16261SOL     OW50789   6.700   4.538   5.299
16261SOL    HW150790   6.733   4.574   5.216
16261SOL    HW250791   6.757   4.463   5.317
16262SOL     OW50792   2.562   2.714   6.682
16262SOL    HW150793   2.530   2.675   6.763
16262SOL    HW250794   2.649   2.676   6.670
16263SOL     OW50795   7.112   2.273  10.805
16263SOL    HW150796   7.113   2.215  10.728
16263SOL    HW250797   7.032   2.249  10.852
16264SOL     OW50798   6.352   9.642   0.617
16264SOL    HW150799   6.386   9.554   0.601
16264SOL    HW250800   6.321   9.671   0.531
16265SOL     OW50801   4.778  10.367   4.227
16265SOL    HW150802   4.796  10.445   4.175
16265SOL    HW250803   4.864  10.327   4.240
16266SOL     OW50804   1.036   7.770   6.210
16266SOL    HW150805   0.962   7.716   6.183
16266SOL    HW250806   1.099   7.762   6.138
16267SOL     OW50807   3.143   2.975   6.902
16267SOL    HW150808   3.132   2.979   6.807
16267SOL    HW250809   3.101   3.054   6.934
16268SOL     OW50810   0.576   6.759   8.430
16268SOL    HW150811   0.660   6.713   8.433
16268SOL    HW250812   0.599   6.851   8.422
16269SOL     OW50813   5.079   4.708   1.681
16269SOL    HW150814   4.991   4.669   1.684
16269SOL    HW250815   5.136   4.635   1.657
16270SOL     OW50816   6.599   0.332   3.889
16270SOL    HW150817   6.567   0.321   3.978
16270SOL    HW250818   6.667   0.399   3.896
16271SOL     OW50819   5.234   3.171   6.075
16271SOL    HW150820   5.227   3.176   5.979
16271SOL    HW250821   5.187   3.248   6.107
16272SOL     OW50822   6.380   3.781  10.522
16272SOL    HW150823   6.475   3.767  10.523
16272SOL    HW250824   6.343   3.694  10.539
16273SOL     OW50825   3.773   2.430   0.452
16273SOL    HW150826   3.737   2.470   0.373
16273SOL    HW250827   3.702   2.434   0.516
16274SOL     OW50828   7.303   3.943  10.951
16274SOL    HW150829   7.385   3.976  10.987
16274SOL    HW250830   7.307   3.848  10.965
16275SOL     OW50831   0.855   0.487   2.441
16275SOL    HW150832   0.799   0.416   2.409
16275SOL    HW250833   0.919   0.443   2.497
16276SOL     OW50834   6.097  10.472   1.491
16276SOL    HW150835   6.134  10.393   1.530
16276SOL    HW250836   6.141  10.480   1.406
16277SOL     OW50837   0.933   0.396   6.062
16277SOL    HW150838   0.982   0.470   6.098
16277SOL    HW250839   0.987   0.364   5.990
16278SOL     OW50840  10.930   5.269   7.310
16278SOL    HW150841  11.009   5.294   7.262
16278SOL    HW250842  10.951   5.184   7.349
16279SOL     OW50843   5.741   0.702   4.087
16279SOL    HW150844   5.780   0.763   4.149
16279SOL    HW250845   5.724   0.754   4.008
16280SOL     OW50846   6.404   8.769   0.333
16280SOL    HW150847   6.492   8.732   0.328
16280SOL    HW250848   6.359   8.714   0.397
16281SOL     OW50849   1.059   2.361   5.893
16281SOL    HW150850   1.152   2.337   5.898
16281SOL    HW250851   1.059   2.456   5.895
16282SOL     OW50852   2.877   2.023   2.528
16282SOL    HW150853   2.822   2.087   2.572
16282SOL    HW250854   2.945   2.001   2.592
16283SOL     OW50855   3.971  11.020   8.343
16283SOL    HW150856   3.968  10.935   8.300
16283SOL    HW250857   3.968  11.000   8.436
16284SOL     OW50858   9.891   4.999   0.796
16284SOL    HW150859   9.949   4.989   0.871
16284SOL    HW250860   9.810   5.034   0.832
16285SOL     OW50861   9.692   9.482   6.070
16285SOL    HW150862   9.601   9.508   6.080
16285SOL    HW250863   9.688   9.398   6.023
16286SOL     OW50864   3.078   1.585   5.803
16286SOL    HW150865   3.090   1.591   5.708
16286SOL    HW250866   3.114   1.499   5.826
16287SOL     OW50867  10.845   6.965   2.389
16287SOL    HW150868  10.799   6.895   2.436
16287SOL    HW250869  10.869   7.028   2.457
16288SOL     OW50870   8.361   8.880   5.096
16288SOL    HW150871   8.431   8.816   5.111
16288SOL    HW250872   8.281   8.832   5.117
16289SOL     OW50873   4.464   8.881   3.996
16289SOL    HW150874   4.531   8.894   4.063
16289SOL    HW250875   4.384   8.915   4.034
16290SOL     OW50876   6.618   8.909   1.874
16290SOL    HW150877   6.652   8.845   1.937
16290SOL    HW250878   6.688   8.919   1.809
16291SOL     OW50879   4.900   2.823   6.381
16291SOL    HW150880   4.964   2.880   6.339
16291SOL    HW250881   4.886   2.752   6.318
16292SOL     OW50882   4.541   8.870  10.569
16292SOL    HW150883   4.628   8.909  10.566
16292SOL    HW250884   4.482   8.943  10.587
16293SOL     OW50885   3.960   6.751   4.148
16293SOL    HW150886   4.040   6.730   4.100
16293SOL    HW250887   3.988   6.813   4.215
16294SOL     OW50888   1.116   1.184   1.640
16294SOL    HW150889   1.117   1.102   1.589
16294SOL    HW250890   1.024   1.207   1.646
16295SOL     OW50891   5.937   1.314   3.971
16295SOL    HW150892   5.973   1.226   3.961
16295SOL    HW250893   5.962   1.341   4.059
16296SOL     OW50894  10.825   6.631  10.710
16296SOL    HW150895  10.802   6.599  10.797
16296SOL    HW250896  10.833   6.551  10.657
16297SOL     OW50897   2.528   6.359   6.106
16297SOL    HW150898   2.520   6.310   6.023
16297SOL    HW250899   2.440   6.392   6.123
16298SOL     OW50900   6.731   0.391   5.835
16298SOL    HW150901   6.785   0.366   5.760
16298SOL    HW250902   6.775   0.467   5.871
16299SOL     OW50903   8.328   1.853   4.438
16299SOL    HW150904   8.237   1.837   4.463
16299SOL    HW250905   8.379   1.789   4.488
16300SOL     OW50906   2.451   0.406   5.225
16300SOL    HW150907   2.451   0.322   5.179
16300SOL    HW250908   2.378   0.399   5.286
16301SOL     OW50909   5.463   9.299   2.142
16301SOL    HW150910   5.545   9.252   2.123
16301SOL    HW250911   5.491   9.378   2.189
16302SOL     OW50912   3.746   2.199   5.872
16302SOL    HW150913   3.754   2.289   5.902
16302SOL    HW250914   3.750   2.147   5.952
16303SOL     OW50915   7.768   2.002   5.854
16303SOL    HW150916   7.834   2.067   5.878
16303SOL    HW250917   7.717   2.043   5.784
16304SOL     OW50918   7.692   1.505   9.528
16304SOL    HW150919   7.648   1.433   9.573
16304SOL    HW250920   7.761   1.462   9.477
16305SOL     OW50921   7.479   7.139   8.682
16305SOL    HW150922   7.477   7.170   8.591
16305SOL    HW250923   7.429   7.204   8.731
16306SOL     OW50924   3.726   4.718   4.592
16306SOL    HW150925   3.716   4.668   4.511
16306SOL    HW250926   3.641   4.711   4.635
16307SOL     OW50927   4.494   9.474   2.534
16307SOL    HW150928   4.406   9.482   2.498
16307SOL    HW250929   4.507   9.379   2.544
16308SOL     OW50930   4.594   4.776   3.201
16308SOL    HW150931   4.673   4.796   3.251
16308SOL    HW250932   4.564   4.860   3.167
16309SOL     OW50933   7.364   3.600  10.059
16309SOL    HW150934   7.283   3.559  10.028
16309SOL    HW250935   7.350   3.694  10.048
16310SOL     OW50936   6.137   9.026   6.513
16310SOL    HW150937   6.157   8.970   6.588
16310SOL    HW250938   6.051   9.063   6.532
16311SOL     OW50939   4.200  10.535   0.980
16311SOL    HW150940   4.109  10.545   1.006
16311SOL    HW250941   4.196  10.491   0.895
16312SOL     OW50942   9.793   7.183   4.370
16312SOL    HW150943   9.843   7.255   4.408
16312SOL    HW250944   9.823   7.178   4.279
16313SOL     OW50945   3.104   1.751   9.164
16313SOL    HW150946   3.171   1.805   9.204
16313SOL    HW250947   3.040   1.736   9.233
16314SOL     OW50948   7.417   1.426   9.759
16314SOL    HW150949   7.325   1.446   9.741
16314SOL    HW250950   7.429   1.336   9.726
16315SOL     OW50951  10.722   6.864   6.362
16315SOL    HW150952  10.650   6.921   6.387
16315SOL    HW250953  10.755   6.901   6.280
16316SOL     OW50954   5.929   4.134   1.540
16316SOL    HW150955   5.948   4.042   1.561
16316SOL    HW250956   5.918   4.176   1.625
16317SOL     OW50957   3.870   9.617   3.883
16317SOL    HW150958   3.949   9.597   3.934
16317SOL    HW250959   3.904   9.649   3.799
16318SOL     OW50960   0.893   9.853   8.391
16318SOL    HW150961   0.918   9.936   8.351
16318SOL    HW250962   0.841   9.809   8.323
16319SOL     OW50963   3.720   2.627   2.368
16319SOL    HW150964   3.786   2.558   2.370
16319SOL    HW250965   3.765   2.702   2.330
16320SOL     OW50966   0.792   8.911   6.532
16320SOL    HW150967   0.697   8.921   6.529
16320SOL    HW250968   0.824   8.992   6.570
16321SOL     OW50969   2.138  10.638   5.534
16321SOL    HW150970   2.224  10.619   5.572
16321SOL    HW250971   2.091  10.555   5.539
16322SOL     OW50972   6.012   0.861   1.009
16322SOL    HW150973   5.941   0.817   0.962
16322SOL    HW250974   5.999   0.836   1.100
16323SOL     OW50975   4.447   0.593   1.207
16323SOL    HW150976   4.531   0.622   1.242
16323SOL    HW250977   4.468   0.514   1.156
16324SOL     OW50978   6.023  10.034   7.553
16324SOL    HW150979   6.079  10.094   7.504
16324SOL    HW250980   5.957  10.090   7.594
16325SOL     OW50981  10.881   0.272   2.596
16325SOL    HW150982  10.969   0.307   2.609
16325SOL    HW250983  10.878   0.193   2.650
16326SOL     OW50984   6.703   4.208  11.013
16326SOL    HW150985   6.675   4.287  10.967
16326SOL    HW250986   6.724   4.146  10.943
16327SOL     OW50987   2.088   2.480   3.246
16327SOL    HW150988   2.021   2.546   3.232
16327SOL    HW250989   2.048   2.417   3.306
16328SOL     OW50990   9.015   0.945   2.290
16328SOL    HW150991   9.064   0.912   2.214
16328SOL    HW250992   9.014   1.040   2.278
16329SOL     OW50993   3.374   3.311   3.814
16329SOL    HW150994   3.452   3.345   3.858
16329SOL    HW250995   3.303   3.367   3.845
16330SOL     OW50996   7.969   1.635   7.885
16330SOL    HW150997   7.893   1.682   7.852
16330SOL    HW250998   7.933   1.564   7.938
16331SOL     OW50999   9.045   6.490   8.552
16331SOL    HW151000   9.127   6.532   8.526
16331SOL    HW251001   8.976   6.547   8.518
16332SOL     OW51002   7.954   2.169   1.600
16332SOL    HW151003   7.865   2.134   1.592
16332SOL    HW251004   7.971   2.210   1.515
16333SOL     OW51005   8.548   4.086   2.492
16333SOL    HW151006   8.487   4.035   2.545
16333SOL    HW251007   8.504   4.169   2.478
16334SOL     OW51008   3.143   0.478   1.308
16334SOL    HW151009   3.158   0.389   1.276
16334SOL    HW251010   3.119   0.528   1.230
16335SOL     OW51011   8.264   9.862   7.589
16335SOL    HW151012   8.239   9.954   7.594
16335SOL    HW251013   8.308   9.844   7.672
16336SOL     OW51014   2.542   4.866   1.961
16336SOL    HW151015   2.535   4.934   1.894
16336SOL    HW251016   2.458   4.821   1.958
16337SOL     OW51017   0.748   0.858   8.186
16337SOL    HW151018   0.704   0.823   8.108
16337SOL    HW251019   0.684   0.847   8.256
16338SOL     OW51020   9.229   4.526  10.677
16338SOL    HW151021   9.280   4.603  10.703
16338SOL    HW251022   9.284   4.482  10.612
16339SOL     OW51023   6.715   7.032   5.988
16339SOL    HW151024   6.627   7.031   5.950
16339SOL    HW251025   6.754   6.949   5.959
16340SOL     OW51026   2.899   1.551   1.776
16340SOL    HW151027   2.811   1.577   1.748
16340SOL    HW251028   2.905   1.581   1.866
16341SOL     OW51029   7.228   0.517   6.171
16341SOL    HW151030   7.161   0.577   6.140
16341SOL    HW251031   7.184   0.432   6.175
16342SOL     OW51032   4.893   2.829   5.306
16342SOL    HW151033   4.818   2.888   5.309
16342SOL    HW251034   4.967   2.884   5.279
16343SOL     OW51035   3.481   7.736  10.584
16343SOL    HW151036   3.386   7.748  10.582
16343SOL    HW251037   3.503   7.732  10.677
16344SOL     OW51038   2.533   9.145   1.478
16344SOL    HW151039   2.525   9.187   1.392
16344SOL    HW251040   2.588   9.068   1.462
16345SOL     OW51041   4.266   3.888   8.509
16345SOL    HW151042   4.308   3.893   8.423
16345SOL    HW251043   4.316   3.949   8.563
16346SOL     OW51044   8.096   4.900   4.377
16346SOL    HW151045   8.074   4.986   4.411
16346SOL    HW251046   8.174   4.873   4.426
16347SOL     OW51047   2.770   2.737  11.032
16347SOL    HW151048   2.805   2.780  11.110
16347SOL    HW251049   2.753   2.808  10.971
16348SOL     OW51050   8.120   1.488   2.577
16348SOL    HW151051   8.143   1.418   2.638
16348SOL    HW251052   8.201   1.505   2.528
16349SOL     OW51053   4.150   7.336   8.340
16349SOL    HW151054   4.152   7.431   8.336
16349SOL    HW251055   4.233   7.312   8.382
16350SOL     OW51056   8.875   0.970   1.847
16350SOL    HW151057   8.852   0.890   1.894
16350SOL    HW251058   8.805   1.031   1.868
16351SOL     OW51059   0.993   2.636   3.006
16351SOL    HW151060   1.034   2.564   2.957
16351SOL    HW251061   1.066   2.692   3.031
16352SOL     OW51062   3.695   9.756   8.910
16352SOL    HW151063   3.710   9.662   8.923
16352SOL    HW251064   3.639   9.761   8.832
16353SOL     OW51065   6.225  10.173   1.995
16353SOL    HW151066   6.166  10.100   1.976
16353SOL    HW251067   6.226  10.224   1.914
16354SOL     OW51068   6.612   5.491   1.412
16354SOL    HW151069   6.612   5.519   1.320
16354SOL    HW251070   6.697   5.519   1.445
16355SOL     OW51071   7.360   2.738   0.623
16355SOL    HW151072   7.379   2.650   0.589
16355SOL    HW251073   7.438   2.789   0.602
16356SOL     OW51074  10.751   5.030   9.789
16356SOL    HW151075  10.677   4.982   9.752
16356SOL    HW251076  10.729   5.040   9.881
16357SOL     OW51077   0.953   8.459   2.961
16357SOL    HW151078   0.954   8.363   2.971
16357SOL    HW251079   0.884   8.475   2.896
16358SOL     OW51080   9.292   8.828   5.198
16358SOL    HW151081   9.299   8.736   5.224
16358SOL    HW251082   9.199   8.847   5.205
16359SOL     OW51083   6.855   9.626   4.440
16359SOL    HW151084   6.852   9.576   4.358
16359SOL    HW251085   6.827   9.714   4.416
16360SOL     OW51086   2.146   7.078  10.443
16360SOL    HW151087   2.157   7.010  10.376
16360SOL    HW251088   2.180   7.157  10.402
16361SOL     OW51089   3.999   4.474   2.329
16361SOL    HW151090   3.970   4.396   2.282
16361SOL    HW251091   4.019   4.443   2.417
16362SOL     OW51092   8.349   9.541   5.521
16362SOL    HW151093   8.328   9.625   5.480
16362SOL    HW251094   8.439   9.551   5.553
16363SOL     OW51095   5.943   1.624  10.038
16363SOL    HW151096   6.034   1.652  10.043
16363SOL    HW251097   5.921   1.633   9.945
16364SOL     OW51098   2.469   1.507   5.153
16364SOL    HW151099   2.417   1.441   5.199
16364SOL    HW251100   2.536   1.456   5.107
16365SOL     OW51101   2.486  11.039   1.946
16365SOL    HW151102   2.436  10.958   1.936
16365SOL    HW251103   2.574  11.016   1.917
16366SOL     OW51104   3.876  10.524   1.443
16366SOL    HW151105   3.919  10.530   1.528
16366SOL    HW251106   3.904  10.603   1.397
16367SOL     OW51107   0.695   1.554   0.764
16367SOL    HW151108   0.700   1.464   0.731
16367SOL    HW251109   0.637   1.599   0.702
16368SOL     OW51110   4.795   3.145   0.532
16368SOL    HW151111   4.835   3.210   0.590
16368SOL    HW251112   4.869   3.096   0.495
16369SOL     OW51113   6.389   8.118   7.509
16369SOL    HW151114   6.375   8.191   7.449
16369SOL    HW251115   6.312   8.118   7.566
16370SOL     OW51116  10.865   0.706   4.277
16370SOL    HW151117  10.800   0.637   4.289
16370SOL    HW251118  10.821   0.771   4.223
16371SOL     OW51119  11.012   3.639   1.604
16371SOL    HW151120  10.963   3.721   1.611
16371SOL    HW251121  10.985   3.588   1.680
16372SOL     OW51122   1.995   0.808   8.997
16372SOL    HW151123   2.020   0.896   9.025
16372SOL    HW251124   1.901   0.813   8.980
16373SOL     OW51125   7.081   7.549   9.122
16373SOL    HW151126   7.148   7.558   9.054
16373SOL    HW251127   7.117   7.484   9.182
16374SOL     OW51128   8.463   0.521  10.163
16374SOL    HW151129   8.387   0.571  10.133
16374SOL    HW251130   8.426   0.440  10.198
16375SOL     OW51131   3.608  10.082   7.331
16375SOL    HW151132   3.594  10.056   7.422
16375SOL    HW251133   3.536  10.141   7.312
16376SOL     OW51134  10.690   7.458   2.382
16376SOL    HW151135  10.604   7.476   2.420
16376SOL    HW251136  10.751   7.469   2.455
16377SOL     OW51137   8.758   1.009   7.748
16377SOL    HW151138   8.680   1.056   7.717
16377SOL    HW251139   8.756   1.019   7.843
16378SOL     OW51140   2.827   5.231   6.543
16378SOL    HW151141   2.868   5.173   6.607
16378SOL    HW251142   2.733   5.224   6.561
16379SOL     OW51143   4.125   3.641   7.402
16379SOL    HW151144   4.164   3.714   7.450
16379SOL    HW251145   4.033   3.643   7.426
16380SOL     OW51146   4.936  10.130   4.767
16380SOL    HW151147   4.862  10.188   4.751
16380SOL    HW251148   4.983  10.171   4.839
16381SOL     OW51149   3.710   2.456   7.927
16381SOL    HW151150   3.803   2.474   7.915
16381SOL    HW251151   3.671   2.476   7.842
16382SOL     OW51152   1.768   5.749  11.017
16382SOL    HW151153   1.800   5.703  11.095
16382SOL    HW251154   1.769   5.841  11.041
16383SOL     OW51155   9.847   2.865   7.750
16383SOL    HW151156   9.908   2.907   7.811
16383SOL    HW251157   9.882   2.776   7.739
16384SOL     OW51158   4.974   0.961   4.884
16384SOL    HW151159   5.039   0.945   4.816
16384SOL    HW251160   4.894   0.921   4.850
16385SOL     OW51161   2.834   1.460   5.837
16385SOL    HW151162   2.768   1.508   5.787
16385SOL    HW251163   2.903   1.524   5.854
16386SOL     OW51164   2.599   3.950   1.328
16386SOL    HW151165   2.581   3.857   1.345
16386SOL    HW251166   2.513   3.990   1.317
16387SOL     OW51167   0.693   1.413   6.024
16387SOL    HW151168   0.659   1.492   5.982
16387SOL    HW251169   0.686   1.345   5.957
16388SOL     OW51170   5.676   1.725   6.018
16388SOL    HW151171   5.611   1.685   5.960
16388SOL    HW251172   5.628   1.744   6.098
16389SOL     OW51173   5.252   8.401   7.096
16389SOL    HW151174   5.274   8.376   7.186
16389SOL    HW251175   5.164   8.437   7.101
16390SOL     OW51176   7.073   0.677   8.254
16390SOL    HW151177   6.991   0.721   8.234
16390SOL    HW251178   7.140   0.745   8.247
16391SOL     OW51179   2.857   2.249   9.713
16391SOL    HW151180   2.839   2.342   9.708
16391SOL    HW251181   2.783   2.212   9.761
16392SOL     OW51182   1.578   7.892   5.377
16392SOL    HW151183   1.525   7.967   5.350
16392SOL    HW251184   1.542   7.818   5.328
16393SOL     OW51185   0.391   6.927   1.849
16393SOL    HW151186   0.307   6.930   1.895
16393SOL    HW251187   0.369   6.949   1.758
16394SOL     OW51188   6.267  10.456  -0.004
16394SOL    HW151189   6.184  10.504  -0.002
16394SOL    HW251190   6.264  10.400   0.074
16395SOL     OW51191   3.468   6.212   4.710
16395SOL    HW151192   3.467   6.119   4.688
16395SOL    HW251193   3.561   6.234   4.718
16396SOL     OW51194   8.789   1.787   8.774
16396SOL    HW151195   8.809   1.878   8.753
16396SOL    HW251196   8.855   1.737   8.726
16397SOL     OW51197   5.870   0.278   1.684
16397SOL    HW151198   5.860   0.373   1.686
16397SOL    HW251199   5.891   0.254   1.774
16398SOL     OW51200   7.329   6.572   1.495
16398SOL    HW151201   7.323   6.570   1.590
16398SOL    HW251202   7.298   6.485   1.467
16399SOL     OW51203  10.135   4.589   2.510
16399SOL    HW151204  10.191   4.615   2.583
16399SOL    HW251205  10.091   4.669   2.483
16400SOL     OW51206   2.909   9.816   3.126
16400SOL    HW151207   2.935   9.734   3.082
16400SOL    HW251208   2.982   9.876   3.111
16401SOL     OW51209   8.379   1.539   1.121
16401SOL    HW151210   8.383   1.443   1.116
16401SOL    HW251211   8.312   1.563   1.057
16402SOL     OW51212   1.985   3.275   8.571
16402SOL    HW151213   2.060   3.222   8.599
16402SOL    HW251214   2.024   3.353   8.532
16403SOL     OW51215   4.350   2.418   3.923
16403SOL    HW151216   4.422   2.477   3.899
16403SOL    HW251217   4.342   2.426   4.018
16404SOL     OW51218   3.489   2.222   1.183
16404SOL    HW151219   3.451   2.308   1.169
16404SOL    HW251220   3.582   2.232   1.161
16405SOL     OW51221   7.613  10.324   4.427
16405SOL    HW151222   7.588  10.237   4.394
16405SOL    HW251223   7.549  10.384   4.389
16406SOL     OW51224   5.411   3.917   4.990
16406SOL    HW151225   5.333   3.862   4.993
16406SOL    HW251226   5.482   3.858   5.015
16407SOL     OW51227   3.899   5.000   2.878
16407SOL    HW151228   3.939   4.966   2.798
16407SOL    HW251229   3.924   4.937   2.946
16408SOL     OW51230   6.652   2.351   7.496
16408SOL    HW151231   6.616   2.424   7.446
16408SOL    HW251232   6.607   2.274   7.461
16409SOL     OW51233   1.516  10.400   2.866
16409SOL    HW151234   1.486  10.322   2.818
16409SOL    HW251235   1.544  10.366   2.951
16410SOL     OW51236   4.595   3.815   5.235
16410SOL    HW151237   4.553   3.867   5.303
16410SOL    HW251238   4.524   3.793   5.174
16411SOL     OW51239   5.602   2.638   5.530
16411SOL    HW151240   5.628   2.673   5.445
16411SOL    HW251241   5.534   2.574   5.509
16412SOL     OW51242   4.919   9.264  10.905
16412SOL    HW151243   4.941   9.340  10.959
16412SOL    HW251244   4.987   9.262  10.837
16413SOL     OW51245   5.009   2.142  10.699
16413SOL    HW151246   5.003   2.213  10.762
16413SOL    HW251247   5.048   2.182  10.621
16414SOL     OW51248   6.072   8.257   1.379
16414SOL    HW151249   6.021   8.256   1.298
16414SOL    HW251250   6.127   8.335   1.372
16415SOL     OW51251   3.947   8.142   9.234
16415SOL    HW151252   3.937   8.092   9.315
16415SOL    HW251253   4.036   8.123   9.205
16416SOL     OW51254   2.822   2.307   7.432
16416SOL    HW151255   2.913   2.302   7.404
16416SOL    HW251256   2.773   2.264   7.362
16417SOL     OW51257   9.275   6.944   1.490
16417SOL    HW151258   9.261   6.908   1.402
16417SOL    HW251259   9.211   7.014   1.498
16418SOL     OW51260   5.428   5.238   3.648
16418SOL    HW151261   5.409   5.234   3.554
16418SOL    HW251262   5.440   5.146   3.673
16419SOL     OW51263   2.860  10.800   3.529
16419SOL    HW151264   2.936  10.748   3.555
16419SOL    HW251265   2.897  10.880   3.491
16420SOL     OW51266   5.835   1.589   2.221
16420SOL    HW151267   5.862   1.675   2.251
16420SOL    HW251268   5.751   1.573   2.263
16421SOL     OW51269  10.687   8.980   4.693
16421SOL    HW151270  10.693   8.884   4.690
16421SOL    HW251271  10.688   9.001   4.786
16422SOL     OW51272   8.687  10.762   0.792
16422SOL    HW151273   8.725  10.689   0.841
16422SOL    HW251274   8.594  10.741   0.788
16423SOL     OW51275   8.067   9.466   1.425
16423SOL    HW151276   8.091   9.436   1.512
16423SOL    HW251277   8.013   9.395   1.389
16424SOL     OW51278   0.141  10.168   0.202
16424SOL    HW151279   0.156  10.231   0.272
16424SOL    HW251280   0.115  10.221   0.127
16425SOL     OW51281   5.085   1.508   3.165
16425SOL    HW151282   5.137   1.575   3.120
16425SOL    HW251283   5.115   1.510   3.256
16426SOL     OW51284   4.276   5.630  10.860
16426SOL    HW151285   4.354   5.598  10.814
16426SOL    HW251286   4.256   5.713  10.817
16427SOL     OW51287   5.220   1.084   4.453
16427SOL    HW151288   5.127   1.104   4.460
16427SOL    HW251289   5.261   1.166   4.428
16428SOL     OW51290   2.078  11.036   5.404
16428SOL    HW151291   2.172  11.019   5.391
16428SOL    HW251292   2.047  11.065   5.318
16429SOL     OW51293   6.225   8.034   1.381
16429SOL    HW151294   6.164   8.107   1.373
16429SOL    HW251295   6.207   7.996   1.467
16430SOL     OW51296   3.908   3.824   1.940
16430SOL    HW151297   4.002   3.834   1.927
16430SOL    HW251298   3.900   3.761   2.011
16431SOL     OW51299   8.131   2.832   1.783
16431SOL    HW151300   8.177   2.759   1.740
16431SOL    HW251301   8.130   2.901   1.717
16432SOL     OW51302   7.946   9.833   5.930
16432SOL    HW151303   7.938   9.739   5.914
16432SOL    HW251304   8.038   9.853   5.910
16433SOL     OW51305   1.488   9.034   3.768
16433SOL    HW151306   1.426   9.102   3.742
16433SOL    HW251307   1.445   8.952   3.744
16434SOL     OW51308   4.904   7.852   4.424
16434SOL    HW151309   4.952   7.885   4.348
16434SOL    HW251310   4.819   7.896   4.420
16435SOL     OW51311   5.907   2.783   0.887
16435SOL    HW151312   5.854   2.721   0.836
16435SOL    HW251313   5.886   2.869   0.850
16436SOL     OW51314   8.185  10.824   9.039
16436SOL    HW151315   8.204  10.905   9.087
16436SOL    HW251316   8.095  10.802   9.063
16437SOL     OW51317   6.416   9.958   5.956
16437SOL    HW151318   6.396   9.940   6.048
16437SOL    HW251319   6.491   9.902   5.936
16438SOL     OW51320   6.306   2.916   1.033
16438SOL    HW151321   6.293   2.871   0.949
16438SOL    HW251322   6.330   3.005   1.009
16439SOL     OW51323   6.741   4.143   2.674
16439SOL    HW151324   6.674   4.127   2.741
16439SOL    HW251325   6.731   4.235   2.650
16440SOL     OW51326   7.357   6.407   1.706
16440SOL    HW151327   7.425   6.434   1.767
16440SOL    HW251328   7.304   6.344   1.755
16441SOL     OW51329   8.498   7.282   1.288
16441SOL    HW151330   8.421   7.227   1.273
16441SOL    HW251331   8.571   7.231   1.252
16442SOL     OW51332   6.220   5.626   2.364
16442SOL    HW151333   6.234   5.694   2.299
16442SOL    HW251334   6.225   5.544   2.314
16443SOL     OW51335   9.629   0.288   7.699
16443SOL    HW151336   9.698   0.353   7.684
16443SOL    HW251337   9.548   0.338   7.700
16444SOL     OW51338   7.828  10.389   0.714
16444SOL    HW151339   7.812  10.454   0.782
16444SOL    HW251340   7.757  10.402   0.651
16445SOL     OW51341   7.244   2.900   4.406
16445SOL    HW151342   7.333   2.928   4.386
16445SOL    HW251343   7.199   2.980   4.431
16446SOL     OW51344   1.206   4.135   3.647
16446SOL    HW151345   1.171   4.075   3.581
16446SOL    HW251346   1.128   4.171   3.690
16447SOL     OW51347   3.173   6.187   2.381
16447SOL    HW151348   3.232   6.113   2.367
16447SOL    HW251349   3.098   6.150   2.428
16448SOL     OW51350   1.992   9.458   6.969
16448SOL    HW151351   1.899   9.461   6.949
16448SOL    HW251352   2.018   9.550   6.976
16449SOL     OW51353   1.661   2.031   5.005
16449SOL    HW151354   1.713   2.087   5.062
16449SOL    HW251355   1.644   1.953   5.057
16450SOL     OW51356   6.130   2.610  10.322
16450SOL    HW151357   6.132   2.528  10.371
16450SOL    HW251358   6.062   2.597  10.256
16451SOL     OW51359   0.327   6.400   5.304
16451SOL    HW151360   0.234   6.393   5.328
16451SOL    HW251361   0.374   6.379   5.384
16452SOL     OW51362   5.153   4.121   3.452
16452SOL    HW151363   5.135   4.115   3.358
16452SOL    HW251364   5.149   4.214   3.471
16453SOL     OW51365   1.528   4.439   2.757
16453SOL    HW151366   1.533   4.434   2.852
16453SOL    HW251367   1.616   4.467   2.730
16454SOL     OW51368   1.051   9.928   5.827
16454SOL    HW151369   1.058   9.969   5.913
16454SOL    HW251370   0.958   9.910   5.816
16455SOL     OW51371   0.367   4.461   7.237
16455SOL    HW151372   0.420   4.390   7.274
16455SOL    HW251373   0.380   4.454   7.142
16456SOL     OW51374   1.873   8.739   6.506
16456SOL    HW151375   1.945   8.774   6.453
16456SOL    HW251376   1.794   8.762   6.457
16457SOL     OW51377  10.034   1.019   3.839
16457SOL    HW151378  10.078   0.935   3.823
16457SOL    HW251379  10.057   1.073   3.763
16458SOL     OW51380   3.463   0.697   2.518
16458SOL    HW151381   3.451   0.687   2.423
16458SOL    HW251382   3.444   0.789   2.535
16459SOL     OW51383   0.370   8.928   5.920
16459SOL    HW151384   0.351   8.917   5.827
16459SOL    HW251385   0.465   8.923   5.926
16460SOL     OW51386   2.725   9.502   2.261
16460SOL    HW151387   2.755   9.462   2.342
16460SOL    HW251388   2.733   9.596   2.276
16461SOL     OW51389   4.473   4.216   7.091
16461SOL    HW151390   4.499   4.220   6.999
16461SOL    HW251391   4.478   4.123   7.113
16462SOL     OW51392   9.291   0.142   0.009
16462SOL    HW151393   9.205   0.164  -0.025
16462SOL    HW251394   9.327   0.225   0.039
16463SOL     OW51395   3.821   1.500   8.714
16463SOL    HW151396   3.808   1.438   8.641
16463SOL    HW251397   3.878   1.453   8.775
16464SOL     OW51398   2.364   9.730   3.190
16464SOL    HW151399   2.455   9.708   3.169
16464SOL    HW251400   2.348   9.689   3.275
16465SOL     OW51401   4.713   3.953   8.795
16465SOL    HW151402   4.754   3.982   8.713
16465SOL    HW251403   4.775   3.889   8.831
16466SOL     OW51404   4.059   3.567   2.542
16466SOL    HW151405   4.070   3.565   2.637
16466SOL    HW251406   4.029   3.656   2.523
16467SOL     OW51407   3.636   3.649   4.385
16467SOL    HW151408   3.563   3.702   4.353
16467SOL    HW251409   3.652   3.586   4.314
16468SOL     OW51410   4.979   4.685   3.833
16468SOL    HW151411   4.923   4.685   3.910
16468SOL    HW251412   5.043   4.754   3.849
16469SOL     OW51413   2.465   2.301   0.348
16469SOL    HW151414   2.416   2.286   0.428
16469SOL    HW251415   2.556   2.285   0.372
16470SOL     OW51416   3.034   5.289   8.533
16470SOL    HW151417   3.008   5.331   8.614
16470SOL    HW251418   3.035   5.359   8.468
16471SOL     OW51419   9.687   1.225   0.403
16471SOL    HW151420   9.646   1.260   0.324
16471SOL    HW251421   9.614   1.202   0.460
16472SOL     OW51422   5.830   6.459   1.161
16472SOL    HW151423   5.775   6.504   1.097
16472SOL    HW251424   5.846   6.524   1.229
16473SOL     OW51425   7.838   3.471   1.372
16473SOL    HW151426   7.874   3.559   1.383
16473SOL    HW251427   7.826   3.438   1.461
16474SOL     OW51428   3.747  10.919   7.534
16474SOL    HW151429   3.714  10.971   7.461
16474SOL    HW251430   3.805  10.978   7.582
16475SOL     OW51431   4.612   4.827   4.441
16475SOL    HW151432   4.549   4.892   4.472
16475SOL    HW251433   4.619   4.764   4.512
16476SOL     OW51434   5.142   4.831   8.161
16476SOL    HW151435   5.121   4.897   8.227
16476SOL    HW251436   5.057   4.800   8.130
16477SOL     OW51437   8.040   8.656  10.537
16477SOL    HW151438   8.007   8.743  10.559
16477SOL    HW251439   8.005   8.638  10.449
16478SOL     OW51440   1.134   5.668   0.635
16478SOL    HW151441   1.115   5.623   0.717
16478SOL    HW251442   1.048   5.689   0.598
16479SOL     OW51443   5.523   8.517   9.441
16479SOL    HW151444   5.522   8.600   9.489
16479SOL    HW251445   5.431   8.493   9.432
16480SOL     OW51446   6.503   2.079   5.367
16480SOL    HW151447   6.437   2.142   5.396
16480SOL    HW251448   6.501   2.085   5.271
16481SOL     OW51449   5.191   6.454   4.717
16481SOL    HW151450   5.252   6.439   4.789
16481SOL    HW251451   5.215   6.388   4.651
16482SOL     OW51452   5.641   0.411   0.423
16482SOL    HW151453   5.698   0.484   0.400
16482SOL    HW251454   5.594   0.390   0.342
16483SOL     OW51455   4.773   9.062   0.308
16483SOL    HW151456   4.820   8.999   0.362
16483SOL    HW251457   4.802   9.042   0.218
16484SOL     OW51458   0.893  11.065   3.536
16484SOL    HW151459   0.802  11.093   3.529
16484SOL    HW251460   0.899  11.024   3.622
16485SOL     OW51461   4.840   0.854   6.844
16485SOL    HW151462   4.758   0.902   6.831
16485SOL    HW251463   4.874   0.885   6.927
16486SOL     OW51464   7.138   1.903   1.236
16486SOL    HW151465   7.077   1.968   1.202
16486SOL    HW251466   7.192   1.950   1.299
16487SOL     OW51467  10.170   2.124   0.017
16487SOL    HW151468  10.123   2.050   0.056
16487SOL    HW251469  10.147   2.199   0.072
16488SOL     OW51470   2.083   1.982   8.828
16488SOL    HW151471   2.013   1.924   8.857
16488SOL    HW251472   2.163   1.942   8.863
16489SOL     OW51473  10.102   3.877   8.822
16489SOL    HW151474  10.107   3.783   8.801
16489SOL    HW251475  10.186   3.912   8.793
16490SOL     OW51476   0.490   2.217   3.565
16490SOL    HW151477   0.422   2.269   3.522
16490SOL    HW251478   0.563   2.277   3.576
16491SOL     OW51479   5.991   8.651   7.311
16491SOL    HW151480   5.989   8.744   7.292
16491SOL    HW251481   5.900   8.627   7.325
16492SOL     OW51482   3.151   4.720   1.017
16492SOL    HW151483   3.134   4.787   0.951
16492SOL    HW251484   3.183   4.645   0.967
16493SOL     OW51485   5.329   4.510   4.522
16493SOL    HW151486   5.362   4.445   4.584
16493SOL    HW251487   5.309   4.586   4.576
16494SOL     OW51488   3.076   9.784   2.809
16494SOL    HW151489   3.079   9.869   2.852
16494SOL    HW251490   3.102   9.801   2.718
16495SOL     OW51491   3.376   9.924   6.971
16495SOL    HW151492   3.395   9.839   6.931
16495SOL    HW251493   3.349   9.903   7.060
16496SOL     OW51494   7.394   0.646   3.059
16496SOL    HW151495   7.347   0.729   3.055
16496SOL    HW251496   7.486   0.671   3.062
16497SOL     OW51497   2.274   3.591   9.096
16497SOL    HW151498   2.327   3.513   9.115
16497SOL    HW251499   2.285   3.647   9.173
16498SOL     OW51500   8.198   4.164   5.677
16498SOL    HW151501   8.210   4.124   5.763
16498SOL    HW251502   8.254   4.241   5.678
16499SOL     OW51503   4.213   0.781   1.223
16499SOL    HW151504   4.125   0.751   1.200
16499SOL    HW251505   4.250   0.709   1.275
16500SOL     OW51506   0.880   2.209   5.713
16500SOL    HW151507   0.952   2.220   5.775
16500SOL    HW251508   0.884   2.286   5.657
16501SOL     OW51509   1.433   0.879   1.934
16501SOL    HW151510   1.506   0.918   1.981
16501SOL    HW251511   1.357   0.932   1.958
16502SOL     OW51512   3.803   7.051   8.452
16502SOL    HW151513   3.894   7.053   8.421
16502SOL    HW251514   3.799   6.974   8.509
16503SOL     OW51515   4.553   2.713  10.317
16503SOL    HW151516   4.466   2.738  10.287
16503SOL    HW251517   4.538   2.639  10.376
16504SOL     OW51518   3.897   4.939   8.925
16504SOL    HW151519   3.981   4.985   8.932
16504SOL    HW251520   3.914   4.869   8.862
16505SOL     OW51521   6.180   9.166   7.628
16505SOL    HW151522   6.155   9.227   7.558
16505SOL    HW251523   6.142   9.203   7.707
16506SOL     OW51524   5.991   5.846   8.864
16506SOL    HW151525   5.928   5.774   8.865
16506SOL    HW251526   6.054   5.822   8.795
16507SOL     OW51527   4.252   2.635   6.965
16507SOL    HW151528   4.160   2.635   6.993
16507SOL    HW251529   4.277   2.727   6.965
16508SOL     OW51530  10.277   0.456   9.867
16508SOL    HW151531  10.236   0.532   9.906
16508SOL    HW251532  10.298   0.399   9.941
16509SOL     OW51533   5.632   0.601   3.108
16509SOL    HW151534   5.719   0.621   3.073
16509SOL    HW251535   5.638   0.624   3.200
16510SOL     OW51536  11.071  10.741   3.587
16510SOL    HW151537  11.033  10.668   3.537
16510SOL    HW251538  11.151  10.705   3.625
16511SOL     OW51539   0.927   7.510   6.224
16511SOL    HW151540   0.859   7.493   6.289
16511SOL    HW251541   1.005   7.468   6.259
16512SOL     OW51542   9.474   9.007   5.314
16512SOL    HW151543   9.568   8.989   5.315
16512SOL    HW251544   9.436   8.932   5.268
16513SOL     OW51545   4.527  10.765   9.954
16513SOL    HW151546   4.592  10.835   9.955
16513SOL    HW251547   4.577  10.686   9.974
16514SOL     OW51548   6.667   1.593   1.781
16514SOL    HW151549   6.607   1.544   1.724
16514SOL    HW251550   6.619   1.672   1.805
16515SOL     OW51551   0.718   3.755   8.381
16515SOL    HW151552   0.699   3.759   8.287
16515SOL    HW251553   0.781   3.683   8.389
16516SOL     OW51554   8.130   0.467   9.163
16516SOL    HW151555   8.110   0.428   9.248
16516SOL    HW251556   8.179   0.546   9.183
16517SOL     OW51557   4.956  10.462   5.873
16517SOL    HW151558   4.930  10.523   5.942
16517SOL    HW251559   4.874  10.426   5.840
16518SOL     OW51560   6.702   2.608  10.978
16518SOL    HW151561   6.712   2.553  11.056
16518SOL    HW251562   6.644   2.679  11.005
16519SOL     OW51563   4.972   5.328   1.052
16519SOL    HW151564   5.021   5.343   0.971
16519SOL    HW251565   4.951   5.234   1.050
16520SOL     OW51566   5.468   8.098   3.721
16520SOL    HW151567   5.447   8.151   3.644
16520SOL    HW251568   5.494   8.013   3.684
16521SOL     OW51569   7.379   9.919   6.525
16521SOL    HW151570   7.407   9.827   6.522
16521SOL    HW251571   7.441   9.964   6.468
16522SOL     OW51572   4.765  11.067   4.457
16522SOL    HW151573   4.696  11.083   4.521
16522SOL    HW251574   4.720  11.068   4.372
16523SOL     OW51575   5.893   2.393   5.299
16523SOL    HW151576   5.799   2.399   5.283
16523SOL    HW251577   5.914   2.301   5.282
16524SOL     OW51578  10.621   1.466   2.258
16524SOL    HW151579  10.680   1.409   2.308
16524SOL    HW251580  10.551   1.489   2.319
16525SOL     OW51581   3.418   8.443   5.939
16525SOL    HW151582   3.498   8.452   5.990
16525SOL    HW251583   3.448   8.445   5.848
16526SOL     OW51584   9.576   7.364   4.581
16526SOL    HW151585   9.535   7.395   4.661
16526SOL    HW251586   9.656   7.320   4.610
16527SOL     OW51587   1.378   1.189   3.136
16527SOL    HW151588   1.470   1.195   3.163
16527SOL    HW251589   1.378   1.126   3.064
16528SOL     OW51590  10.052   2.465   3.059
16528SOL    HW151591  10.115   2.525   3.097
16528SOL    HW251592   9.975   2.471   3.115
16529SOL     OW51593   4.540   8.415   7.422
16529SOL    HW151594   4.543   8.492   7.366
16529SOL    HW251595   4.447   8.396   7.432
16530SOL     OW51596   1.140   7.750   4.798
16530SOL    HW151597   1.196   7.672   4.804
16530SOL    HW251598   1.126   7.762   4.704
16531SOL     OW51599   8.730   4.825   3.660
16531SOL    HW151600   8.719   4.850   3.568
16531SOL    HW251601   8.771   4.901   3.701
16532SOL     OW51602   7.459   8.406   9.009
16532SOL    HW151603   7.492   8.474   9.067
16532SOL    HW251604   7.500   8.325   9.041
16533SOL     OW51605   3.717   5.305  10.801
16533SOL    HW151606   3.690   5.395  10.786
16533SOL    HW251607   3.812   5.309  10.813
16534SOL     OW51608   4.276   8.580   5.621
16534SOL    HW151609   4.319   8.637   5.684
16534SOL    HW251610   4.314   8.493   5.637
16535SOL     OW51611   2.126   3.091   7.729
16535SOL    HW151612   2.151   3.181   7.711
16535SOL    HW251613   2.031   3.093   7.740
16536SOL     OW51614   4.954   4.634   6.712
16536SOL    HW151615   4.926   4.686   6.787
16536SOL    HW251616   5.050   4.636   6.715
16537SOL     OW51617   3.105   5.315   4.208
16537SOL    HW151618   3.154   5.383   4.161
16537SOL    HW251619   3.014   5.327   4.180
16538SOL     OW51620   5.506   9.071   3.161
16538SOL    HW151621   5.439   9.004   3.177
16538SOL    HW251622   5.589   9.028   3.183
16539SOL     OW51623   0.547   2.538   2.961
16539SOL    HW151624   0.633   2.577   2.944
16539SOL    HW251625   0.516   2.581   3.040
16540SOL     OW51626   1.925  10.925   2.130
16540SOL    HW151627   2.004  10.904   2.179
16540SOL    HW251628   1.951  10.918   2.038
16541SOL     OW51629   8.018   9.155   4.708
16541SOL    HW151630   7.987   9.073   4.668
16541SOL    HW251631   8.075   9.126   4.779
16542SOL     OW51632   9.730   3.984   6.948
16542SOL    HW151633   9.785   4.044   6.898
16542SOL    HW251634   9.792   3.923   6.989
16543SOL     OW51635   3.022   3.835   5.908
16543SOL    HW151636   2.999   3.779   5.834
16543SOL    HW251637   2.940   3.878   5.931
16544SOL     OW51638   3.878   4.198   7.352
16544SOL    HW151639   3.966   4.161   7.344
16544SOL    HW251640   3.820   4.124   7.336
16545SOL     OW51641   4.800   2.927   6.069
16545SOL    HW151642   4.743   2.971   6.006
16545SOL    HW251643   4.752   2.848   6.094
16546SOL     OW51644  10.827  10.646   6.051
16546SOL    HW151645  10.884  10.664   5.976
16546SOL    HW251646  10.841  10.720   6.110
16547SOL     OW51647   1.451   9.496   0.954
16547SOL    HW151648   1.467   9.553   0.878
16547SOL    HW251649   1.430   9.411   0.915
16548SOL     OW51650   6.886   8.027   0.341
16548SOL    HW151651   6.817   7.977   0.384
16548SOL    HW251652   6.884   7.996   0.250
16549SOL     OW51653   6.502   4.214   2.083
16549SOL    HW151654   6.488   4.304   2.055
16549SOL    HW251655   6.465   4.209   2.171
16550SOL     OW51656   7.011   0.738   6.306
16550SOL    HW151657   6.988   0.822   6.344
16550SOL    HW251658   6.992   0.747   6.212
16551SOL     OW51659   5.984   2.678   0.351
16551SOL    HW151660   5.900   2.655   0.312
16551SOL    HW251661   6.036   2.598   0.344
16552SOL     OW51662   3.685   3.455   5.253
16552SOL    HW151663   3.656   3.450   5.162
16552SOL    HW251664   3.748   3.383   5.261
16553SOL     OW51665   1.903   4.261   2.811
16553SOL    HW151666   1.991   4.245   2.777
16553SOL    HW251667   1.911   4.342   2.860
16554SOL     OW51668   5.139   4.021   0.573
16554SOL    HW151669   5.157   3.953   0.637
16554SOL    HW251670   5.063   3.988   0.524
16555SOL     OW51671   8.239   2.762   4.597
16555SOL    HW151672   8.204   2.834   4.545
16555SOL    HW251673   8.308   2.802   4.650
16556SOL     OW51674   4.723   9.571   6.936
16556SOL    HW151675   4.721   9.648   6.879
16556SOL    HW251676   4.816   9.560   6.958
16557SOL     OW51677   2.236   8.382   5.588
16557SOL    HW151678   2.151   8.348   5.616
16557SOL    HW251679   2.215   8.449   5.523
16558SOL     OW51680   0.762   3.689   0.418
16558SOL    HW151681   0.684   3.678   0.472
16558SOL    HW251682   0.833   3.654   0.471
16559SOL     OW51683   7.300   2.364   6.420
16559SOL    HW151684   7.329   2.318   6.341
16559SOL    HW251685   7.346   2.320   6.491
16560SOL     OW51686   1.932   2.433   5.025
16560SOL    HW151687   1.943   2.340   5.002
16560SOL    HW251688   2.011   2.455   5.074
16561SOL     OW51689   6.396   7.763   7.844
16561SOL    HW151690   6.309   7.800   7.835
16561SOL    HW251691   6.413   7.765   7.938
16562SOL     OW51692   3.824  10.241  10.829
16562SOL    HW151693   3.879  10.296  10.885
16562SOL    HW251694   3.886  10.192  10.774
16563SOL     OW51695   7.640  10.471   0.528
16563SOL    HW151696   7.552  10.477   0.565
16563SOL    HW251697   7.626  10.438   0.439
16564SOL     OW51698   3.871   4.217   6.229
16564SOL    HW151699   3.887   4.226   6.135
16564SOL    HW251700   3.790   4.166   6.235
16565SOL     OW51701   7.733   1.955   7.216
16565SOL    HW151702   7.650   1.908   7.211
16565SOL    HW251703   7.713   2.036   7.263
16566SOL     OW51704   2.557   7.513   9.271
16566SOL    HW151705   2.601   7.574   9.329
16566SOL    HW251706   2.582   7.541   9.183
16567SOL     OW51707   7.498   4.213   0.461
16567SOL    HW151708   7.415   4.175   0.490
16567SOL    HW251709   7.479   4.306   0.447
16568SOL     OW51710   5.235   5.094   3.127
16568SOL    HW151711   5.294   5.059   3.059
16568SOL    HW251712   5.227   5.187   3.106
16569SOL     OW51713   4.991   5.185   4.657
16569SOL    HW151714   5.025   5.274   4.657
16569SOL    HW251715   5.066   5.131   4.633
16570SOL     OW51716  11.042   3.242   7.463
16570SOL    HW151717  10.949   3.220   7.462
16570SOL    HW251718  11.080   3.184   7.397
16571SOL     OW51719   4.458   7.618   3.736
16571SOL    HW151720   4.459   7.606   3.831
16571SOL    HW251721   4.405   7.545   3.703
16572SOL     OW51722   3.845   5.399   0.773
16572SOL    HW151723   3.851   5.413   0.678
16572SOL    HW251724   3.836   5.486   0.810
16573SOL     OW51725   1.005   4.829   6.517
16573SOL    HW151726   0.990   4.921   6.498
16573SOL    HW251727   0.924   4.785   6.490
16574SOL     OW51728   3.534   4.265   8.807
16574SOL    HW151729   3.479   4.299   8.736
16574SOL    HW251730   3.584   4.341   8.837
16575SOL     OW51731   2.211   0.212   8.297
16575SOL    HW151732   2.144   0.177   8.355
16575SOL    HW251733   2.291   0.211   8.349
16576SOL     OW51734   7.085   2.418   0.720
16576SOL    HW151735   7.140   2.415   0.798
16576SOL    HW251736   7.063   2.326   0.703
16577SOL     OW51737   4.368   8.291   2.875
16577SOL    HW151738   4.462   8.293   2.892
16577SOL    HW251739   4.352   8.204   2.837
16578SOL     OW51740   4.157   8.043   2.012
16578SOL    HW151741   4.136   8.108   1.945
16578SOL    HW251742   4.073   8.002   2.033
16579SOL     OW51743   8.784  10.241   6.605
16579SOL    HW151744   8.844  10.271   6.673
16579SOL    HW251745   8.762  10.151   6.630
16580SOL     OW51746   3.982   2.688   7.946
16580SOL    HW151747   4.034   2.664   8.023
16580SOL    HW251748   3.980   2.608   7.893
16581SOL     OW51749   2.254   7.320   5.605
16581SOL    HW151750   2.274   7.245   5.549
16581SOL    HW251751   2.177   7.293   5.655
16582SOL     OW51752   9.358   3.270   6.321
16582SOL    HW151753   9.271   3.296   6.291
16582SOL    HW251754   9.418   3.316   6.262
16583SOL     OW51755   8.598   7.825   3.026
16583SOL    HW151756   8.564   7.735   3.022
16583SOL    HW251757   8.526   7.876   3.063
16584SOL     OW51758   2.564   6.872   2.513
16584SOL    HW151759   2.523   6.846   2.430
16584SOL    HW251760   2.506   6.938   2.549
16585SOL     OW51761   3.353   9.129   4.743
16585SOL    HW151762   3.442   9.094   4.753
16585SOL    HW251763   3.296   9.054   4.763
16586SOL     OW51764  10.092   2.109   6.106
16586SOL    HW151765  10.002   2.081   6.091
16586SOL    HW251766  10.141   2.072   6.032
16587SOL     OW51767   6.860   3.071   3.304
16587SOL    HW151768   6.802   3.043   3.233
16587SOL    HW251769   6.829   3.023   3.381
16588SOL     OW51770   8.398   5.274  10.506
16588SOL    HW151771   8.369   5.361  10.531
16588SOL    HW251772   8.466   5.289  10.440
16589SOL     OW51773  10.525   3.323   4.213
16589SOL    HW151774  10.603   3.322   4.157
16589SOL    HW251775  10.501   3.415   4.220
16590SOL     OW51776  10.190   9.328   7.219
16590SOL    HW151777  10.212   9.336   7.312
16590SOL    HW251778  10.275   9.319   7.175
16591SOL     OW51779   3.639   5.206   3.548
16591SOL    HW151780   3.632   5.196   3.453
16591SOL    HW251781   3.705   5.141   3.573
16592SOL     OW51782   3.852   1.892   5.383
16592SOL    HW151783   3.918   1.894   5.314
16592SOL    HW251784   3.832   1.799   5.393
16593SOL     OW51785   0.756   0.102   6.842
16593SOL    HW151786   0.797   0.022   6.808
16593SOL    HW251787   0.700   0.132   6.770
16594SOL     OW51788   0.499   4.080   6.282
16594SOL    HW151789   0.542   4.040   6.206
16594SOL    HW251790   0.464   4.163   6.249
16595SOL     OW51791   4.969   6.426   6.516
16595SOL    HW151792   5.035   6.450   6.451
16595SOL    HW251793   4.997   6.471   6.596
16596SOL     OW51794  10.480   3.108   0.183
16596SOL    HW151795  10.446   3.104   0.094
16596SOL    HW251796  10.402   3.118   0.238
16597SOL     OW51797   7.598   9.328   1.482
16597SOL    HW151798   7.546   9.393   1.530
16597SOL    HW251799   7.533   9.269   1.442
16598SOL     OW51800   5.965   2.417   6.017
16598SOL    HW151801   5.889   2.474   6.016
16598SOL    HW251802   6.024   2.457   6.081
16599SOL     OW51803   4.577   7.418   3.241
16599SOL    HW151804   4.533   7.359   3.179
16599SOL    HW251805   4.668   7.419   3.211
16600SOL     OW51806   1.906   8.410   9.329
16600SOL    HW151807   1.946   8.473   9.389
16600SOL    HW251808   1.883   8.462   9.252
16601SOL     OW51809   4.457   8.936   6.590
16601SOL    HW151810   4.485   9.024   6.566
16601SOL    HW251811   4.367   8.946   6.620
16602SOL     OW51812   7.471   0.597   5.041
16602SOL    HW151813   7.519   0.594   5.124
16602SOL    HW251814   7.438   0.686   5.035
16603SOL     OW51815   0.569   0.263   0.846
16603SOL    HW151816   0.553   0.213   0.926
16603SOL    HW251817   0.650   0.225   0.810
16604SOL     OW51818   3.937  11.003   6.642
16604SOL    HW151819   3.960  10.937   6.576
16604SOL    HW251820   4.009  11.066   6.639
16605SOL     OW51821   5.831   9.929   8.637
16605SOL    HW151822   5.916   9.963   8.609
16605SOL    HW251823   5.777   9.933   8.558
16606SOL     OW51824   7.205   0.978   4.158
16606SOL    HW151825   7.150   0.927   4.218
16606SOL    HW251826   7.242   0.913   4.098
16607SOL     OW51827   5.462   5.005   4.922
16607SOL    HW151828   5.520   5.081   4.926
16607SOL    HW251829   5.393   5.024   4.985
16608SOL     OW51830   9.207   0.903   9.091
16608SOL    HW151831   9.227   0.810   9.082
16608SOL    HW251832   9.197   0.916   9.185
16609SOL     OW51833   3.632   3.225   0.059
16609SOL    HW151834   3.649   3.295   0.122
16609SOL    HW251835   3.544   3.242   0.027
16610SOL     OW51836   6.995   8.704   4.107
16610SOL    HW151837   6.938   8.660   4.043
16610SOL    HW251838   7.030   8.632   4.160
16611SOL     OW51839   4.381   6.973   2.951
16611SOL    HW151840   4.343   6.904   3.006
16611SOL    HW251841   4.306   7.017   2.911
16612SOL     OW51842   1.564   1.393   5.546
16612SOL    HW151843   1.602   1.347   5.621
16612SOL    HW251844   1.633   1.453   5.517
16613SOL     OW51845   6.789   9.582   7.670
16613SOL    HW151846   6.785   9.515   7.602
16613SOL    HW251847   6.698   9.597   7.694
16614SOL     OW51848  10.321   7.099   4.031
16614SOL    HW151849  10.287   7.094   4.120
16614SOL    HW251850  10.354   7.011   4.013
16615SOL     OW51851   6.872   5.478  10.331
16615SOL    HW151852   6.794   5.529  10.311
16615SOL    HW251853   6.906   5.517  10.411
16616SOL     OW51854  11.074   5.700   7.291
16616SOL    HW151855  11.151   5.754   7.275
16616SOL    HW251856  11.100   5.641   7.362
16617SOL     OW51857   2.776   8.360   6.990
16617SOL    HW151858   2.857   8.370   7.040
16617SOL    HW251859   2.762   8.445   6.949
16618SOL     OW51860   4.197   0.425   6.304
16618SOL    HW151861   4.211   0.415   6.210
16618SOL    HW251862   4.207   0.519   6.320
16619SOL     OW51863   5.288   2.832   7.634
16619SOL    HW151864   5.351   2.884   7.683
16619SOL    HW251865   5.204   2.848   7.677
16620SOL     OW51866   8.695   6.127   9.998
16620SOL    HW151867   8.673   6.163  10.083
16620SOL    HW251868   8.750   6.051  10.017
16621SOL     OW51869   6.593   5.687   8.499
16621SOL    HW151870   6.667   5.658   8.553
16621SOL    HW251871   6.549   5.606   8.473
16622SOL     OW51872   4.712  11.076   8.712
16622SOL    HW151873   4.777  11.044   8.775
16622SOL    HW251874   4.628  11.066   8.757
16623SOL     OW51875   0.011   3.239   3.236
16623SOL    HW151876  -0.003   3.332   3.219
16623SOL    HW251877   0.032   3.202   3.150
16624SOL     OW51878  10.216   2.366   5.029
16624SOL    HW151879  10.134   2.364   5.079
16624SOL    HW251880  10.202   2.303   4.958
16625SOL     OW51881   5.959   6.157   4.130
16625SOL    HW151882   6.018   6.136   4.202
16625SOL    HW251883   5.957   6.252   4.128
16626SOL     OW51884   6.984   3.437   6.589
16626SOL    HW151885   6.902   3.456   6.544
16626SOL    HW251886   7.025   3.522   6.602
16627SOL     OW51887   6.057   5.729   3.826
16627SOL    HW151888   6.042   5.800   3.888
16627SOL    HW251889   5.976   5.678   3.828
16628SOL     OW51890   2.868   2.830   4.260
16628SOL    HW151891   2.868   2.741   4.223
16628SOL    HW251892   2.785   2.836   4.307
16629SOL     OW51893   6.669   1.709   2.497
16629SOL    HW151894   6.635   1.621   2.481
16629SOL    HW251895   6.734   1.697   2.566
16630SOL     OW51896  10.391   8.298   6.894
16630SOL    HW151897  10.450   8.224   6.912
16630SOL    HW251898  10.428   8.371   6.944
16631SOL     OW51899   0.927   1.251   3.407
16631SOL    HW151900   0.937   1.323   3.468
16631SOL    HW251901   0.888   1.180   3.459
16632SOL     OW51902   9.347   2.054   3.854
16632SOL    HW151903   9.325   2.116   3.784
16632SOL    HW251904   9.350   2.107   3.933
16633SOL     OW51905   2.447   1.491   6.476
16633SOL    HW151906   2.501   1.416   6.502
16633SOL    HW251907   2.444   1.486   6.380
16634SOL     OW51908   2.560   9.368   6.731
16634SOL    HW151909   2.489   9.306   6.713
16634SOL    HW251910   2.519   9.436   6.784
16635SOL     OW51911   2.796   7.023   8.347
16635SOL    HW151912   2.848   6.960   8.296
16635SOL    HW251913   2.713   7.028   8.299
16636SOL     OW51914   5.061   5.770   8.717
16636SOL    HW151915   4.989   5.713   8.743
16636SOL    HW251916   5.139   5.730   8.756
16637SOL     OW51917   7.739   9.484   6.501
16637SOL    HW151918   7.796   9.493   6.577
16637SOL    HW251919   7.654   9.458   6.537
16638SOL     OW51920   9.117   3.274   7.966
16638SOL    HW151921   9.143   3.355   7.922
16638SOL    HW251922   9.168   3.205   7.922
16639SOL     OW51923   5.569   4.519   0.298
16639SOL    HW151924   5.661   4.524   0.272
16639SOL    HW251925   5.533   4.604   0.275
16640SOL     OW51926   1.702   2.577   4.905
16640SOL    HW151927   1.613   2.548   4.886
16640SOL    HW251928   1.734   2.515   4.970
16641SOL     OW51929   7.180   6.324  10.016
16641SOL    HW151930   7.195   6.370  10.098
16641SOL    HW251931   7.085   6.314  10.011
16642SOL     OW51932   2.813   9.981   6.223
16642SOL    HW151933   2.774   9.900   6.189
16642SOL    HW251934   2.812  10.041   6.148
16643SOL     OW51935   4.556   4.590  10.761
16643SOL    HW151936   4.579   4.522  10.697
16643SOL    HW251937   4.537   4.542  10.841
16644SOL     OW51938   3.640   7.566   9.727
16644SOL    HW151939   3.722   7.576   9.678
16644SOL    HW251940   3.577   7.619   9.679
16645SOL     OW51941   7.636   2.564   2.355
16645SOL    HW151942   7.607   2.648   2.320
16645SOL    HW251943   7.695   2.587   2.427
16646SOL     OW51944   4.707   8.295   2.951
16646SOL    HW151945   4.714   8.205   2.918
16646SOL    HW251946   4.686   8.285   3.044
16647SOL     OW51947   0.501   5.577   2.787
16647SOL    HW151948   0.492   5.501   2.728
16647SOL    HW251949   0.455   5.648   2.742
16648SOL     OW51950   3.694   2.079   4.112
16648SOL    HW151951   3.709   2.104   4.203
16648SOL    HW251952   3.697   1.983   4.112
16649SOL     OW51953   3.250   3.138   6.244
16649SOL    HW151954   3.332   3.117   6.197
16649SOL    HW251955   3.274   3.206   6.306
16650SOL     OW51956   4.103   4.207   4.681
16650SOL    HW151957   4.139   4.133   4.632
16650SOL    HW251958   4.010   4.187   4.689
16651SOL     OW51959   3.149   1.595   3.485
16651SOL    HW151960   3.131   1.573   3.393
16651SOL    HW251961   3.180   1.513   3.524
16652SOL     OW51962   6.127   2.481   9.382
16652SOL    HW151963   6.184   2.403   9.380
16652SOL    HW251964   6.043   2.449   9.415
16653SOL     OW51965   3.465   3.771   9.243
16653SOL    HW151966   3.519   3.850   9.248
16653SOL    HW251967   3.512   3.714   9.181
16654SOL     OW51968   3.824  10.110   3.696
16654SOL    HW151969   3.779  10.025   3.695
16654SOL    HW251970   3.809  10.144   3.784
16655SOL     OW51971   9.579   4.425   6.409
16655SOL    HW151972   9.541   4.501   6.364
16655SOL    HW251973   9.543   4.428   6.497
16656SOL     OW51974   4.255   3.129   3.805
16656SOL    HW151975   4.231   3.195   3.740
16656SOL    HW251976   4.250   3.046   3.757
16657SOL     OW51977   5.922   1.173   5.284
16657SOL    HW151978   5.865   1.105   5.247
16657SOL    HW251979   5.928   1.239   5.215
16658SOL     OW51980   3.579   2.827   5.112
16658SOL    HW151981   3.533   2.893   5.163
16658SOL    HW251982   3.510   2.773   5.074
16659SOL     OW51983   6.209  10.585   9.384
16659SOL    HW151984   6.136  10.646   9.390
16659SOL    HW251985   6.228  10.580   9.290
16660SOL     OW51986   0.094   0.168   8.037
16660SOL    HW151987   0.116   0.191   7.946
16660SOL    HW251988   0.167   0.114   8.066
16661SOL     OW51989   3.977   4.976   8.265
16661SOL    HW151990   3.903   4.915   8.255
16661SOL    HW251991   4.055   4.922   8.249
16662SOL     OW51992   7.032   8.897   4.312
16662SOL    HW151993   7.021   8.823   4.252
16662SOL    HW251994   7.034   8.857   4.399
16663SOL     OW51995   6.542   3.527   1.394
16663SOL    HW151996   6.468   3.486   1.439
16663SOL    HW251997   6.502   3.583   1.327
16664SOL     OW51998   4.218  10.224   0.277
16664SOL    HW151999   4.199  10.164   0.204
16664SOL    HW252000   4.146  10.210   0.338
16665SOL     OW52001   0.574   2.774   4.520
16665SOL    HW152002   0.512   2.798   4.451
16665SOL    HW252003   0.644   2.839   4.513
16666SOL     OW52004   5.182  10.941   7.848
16666SOL    HW152005   5.259  10.995   7.865
16666SOL    HW252006   5.138  10.984   7.774
16667SOL     OW52007   4.490   4.630   9.069
16667SOL    HW152008   4.405   4.610   9.108
16667SOL    HW252009   4.476   4.619   8.975
16668SOL     OW52010   8.292  10.946   4.458
16668SOL    HW152011   8.260  11.010   4.394
16668SOL    HW252012   8.250  10.864   4.433
16669SOL     OW52013   6.438   4.769   5.943
16669SOL    HW152014   6.487   4.829   5.887
16669SOL    HW252015   6.408   4.823   6.016
16670SOL     OW52016  10.740   0.938   4.156
16670SOL    HW152017  10.652   0.973   4.170
16670SOL    HW252018  10.763   0.966   4.067
16671SOL     OW52019   1.110   0.344   9.064
16671SOL    HW152020   1.190   0.389   9.091
16671SOL    HW252021   1.039   0.405   9.085
16672SOL     OW52022   6.420   1.158   2.865
16672SOL    HW152023   6.458   1.233   2.820
16672SOL    HW252024   6.493   1.097   2.877
16673SOL     OW52025   4.357  10.943   0.459
16673SOL    HW152026   4.378  11.034   0.438
16673SOL    HW252027   4.337  10.944   0.552
16674SOL     OW52028   9.922   9.378   8.819
16674SOL    HW152029   9.910   9.323   8.741
16674SOL    HW252030   9.882   9.462   8.796
16675SOL     OW52031   0.202   5.226  10.340
16675SOL    HW152032   0.154   5.257  10.263
16675SOL    HW252033   0.259   5.157  10.306
16676SOL     OW52034   3.418   8.568   4.439
16676SOL    HW152035   3.420   8.537   4.348
16676SOL    HW252036   3.378   8.496   4.488
16677SOL     OW52037   6.469   5.055   5.830
16677SOL    HW152038   6.391   5.031   5.879
16677SOL    HW252039   6.525   5.099   5.894
16678SOL     OW52040   3.192   9.515   7.485
16678SOL    HW152041   3.265   9.547   7.432
16678SOL    HW252042   3.220   9.428   7.514
16679SOL     OW52043   4.385   6.516   4.501
16679SOL    HW152044   4.386   6.460   4.423
16679SOL    HW252045   4.361   6.457   4.572
16680SOL     OW52046   3.723   9.398   3.967
16680SOL    HW152047   3.705   9.342   3.891
16680SOL    HW252048   3.740   9.484   3.929
16681SOL     OW52049   8.259   1.579   9.260
16681SOL    HW152050   8.223   1.666   9.244
16681SOL    HW252051   8.216   1.523   9.195
16682SOL     OW52052   8.510   1.876  11.061
16682SOL    HW152053   8.539   1.863  11.151
16682SOL    HW252054   8.545   1.962  11.037
16683SOL     OW52055   0.032   2.122   2.861
16683SOL    HW152056   0.091   2.051   2.887
16683SOL    HW252057   0.015   2.170   2.941
16684SOL     OW52058   2.670   4.529   9.734
16684SOL    HW152059   2.635   4.609   9.694
16684SOL    HW252060   2.675   4.466   9.661
16685SOL     OW52061   7.208   2.047  10.295
16685SOL    HW152062   7.176   2.072  10.208
16685SOL    HW252063   7.136   1.998  10.334
16686SOL     OW52064   2.607   1.076   7.970
16686SOL    HW152065   2.665   1.062   8.045
16686SOL    HW252066   2.659   1.129   7.909
16687SOL     OW52067   2.888   8.023   3.621
16687SOL    HW152068   2.966   8.078   3.615
16687SOL    HW252069   2.905   7.964   3.694
16688SOL     OW52070   6.064  10.877   1.382
16688SOL    HW152071   6.156  10.856   1.399
16688SOL    HW252072   6.034  10.921   1.461
16689SOL     OW52073   0.228   1.611   7.929
16689SOL    HW152074   0.293   1.572   7.987
16689SOL    HW252075   0.261   1.592   7.841
16690SOL     OW52076   3.992   1.033  10.182
16690SOL    HW152077   3.897   1.021  10.181
16690SOL    HW252078   4.007   1.114  10.134
16691SOL     OW52079   7.817   1.668   7.070
16691SOL    HW152080   7.737   1.672   7.017
16691SOL    HW252081   7.871   1.741   7.039
16692SOL     OW52082   0.301   5.212   4.771
16692SOL    HW152083   0.243   5.288   4.764
16692SOL    HW252084   0.241   5.137   4.780
16693SOL     OW52085   6.820   7.372   8.199
16693SOL    HW152086   6.816   7.384   8.104
16693SOL    HW252087   6.731   7.391   8.229
16694SOL     OW52088   4.427   0.526   8.932
16694SOL    HW152089   4.393   0.613   8.911
16694SOL    HW252090   4.496   0.542   8.996
16695SOL     OW52091   1.233   8.900   9.493
16695SOL    HW152092   1.141   8.918   9.513
16695SOL    HW252093   1.239   8.804   9.494
16696SOL     OW52094   5.289   3.987  10.521
16696SOL    HW152095   5.308   3.926  10.450
16696SOL    HW252096   5.198   4.013  10.506
16697SOL     OW52097   4.991   1.629   7.398
16697SOL    HW152098   4.990   1.718   7.433
16697SOL    HW252099   5.082   1.613   7.374
16698SOL     OW52100   5.910   3.551  10.380
16698SOL    HW152101   5.866   3.634  10.397
16698SOL    HW252102   5.839   3.491  10.355
16699SOL     OW52103   5.843   1.988   8.239
16699SOL    HW152104   5.765   1.996   8.293
16699SOL    HW252105   5.908   1.949   8.297
16700SOL     OW52106   4.372  10.513   2.983
16700SOL    HW152107   4.370  10.596   3.031
16700SOL    HW252108   4.326  10.451   3.039
16701SOL     OW52109   4.399   2.764   4.805
16701SOL    HW152110   4.415   2.858   4.798
16701SOL    HW252111   4.306   2.754   4.787
16702SOL     OW52112   3.140   5.988   2.722
16702SOL    HW152113   3.051   6.001   2.753
16702SOL    HW252114   3.174   6.076   2.709
16703SOL     OW52115   2.782   9.995   7.730
16703SOL    HW152116   2.705   9.938   7.724
16703SOL    HW252117   2.834   9.958   7.801
16704SOL     OW52118  10.483   4.893   0.328
16704SOL    HW152119  10.577   4.905   0.312
16704SOL    HW252120  10.476   4.806   0.368
16705SOL     OW52121   4.068   7.694   3.312
16705SOL    HW152122   4.142   7.713   3.253
16705SOL    HW252123   4.021   7.777   3.319
16706SOL     OW52124   8.093   3.861   9.217
16706SOL    HW152125   8.024   3.822   9.163
16706SOL    HW252126   8.137   3.923   9.159
16707SOL     OW52127   6.139  10.232   3.957
16707SOL    HW152128   6.131  10.275   4.042
16707SOL    HW252129   6.221  10.182   3.962
16708SOL     OW52130   0.617   2.753   8.688
16708SOL    HW152131   0.684   2.688   8.712
16708SOL    HW252132   0.635   2.828   8.744
16709SOL     OW52133   0.949   1.206   5.355
16709SOL    HW152134   0.996   1.223   5.436
16709SOL    HW252135   0.896   1.128   5.373
16710SOL     OW52136   2.473   2.551  10.836
16710SOL    HW152137   2.419   2.488  10.884
16710SOL    HW252138   2.427   2.634  10.844
16711SOL     OW52139   7.975   6.884   6.516
16711SOL    HW152140   7.912   6.883   6.587
16711SOL    HW252141   7.938   6.825   6.450
16712SOL     OW52142   2.274  10.833   0.437
16712SOL    HW152143   2.352  10.846   0.382
16712SOL    HW252144   2.280  10.742   0.464
16713SOL     OW52145   2.958   4.340   8.353
16713SOL    HW152146   2.893   4.332   8.282
16713SOL    HW252147   2.937   4.422   8.396
16714SOL     OW52148   1.338   1.204   9.009
16714SOL    HW152149   1.428   1.207   9.042
16714SOL    HW252150   1.294   1.140   9.065
16715SOL     OW52151   8.804   6.034  10.548
16715SOL    HW152152   8.792   5.975  10.622
16715SOL    HW252153   8.759   5.990  10.475
16716SOL     OW52154   1.523   4.977  10.210
16716SOL    HW152155   1.492   5.014  10.292
16716SOL    HW252156   1.580   4.904  10.236
16717SOL     OW52157   8.388   4.997   6.286
16717SOL    HW152158   8.341   5.068   6.242
16717SOL    HW252159   8.324   4.926   6.291
16718SOL     OW52160   2.117   2.684   7.764
16718SOL    HW152161   2.164   2.686   7.680
16718SOL    HW252162   2.030   2.651   7.742
16719SOL     OW52163   2.890   5.289   9.884
16719SOL    HW152164   2.951   5.248   9.823
16719SOL    HW252165   2.921   5.262   9.970
16720SOL     OW52166   5.155   0.226   5.055
16720SOL    HW152167   5.088   0.225   5.123
16720SOL    HW252168   5.224   0.169   5.088
16721SOL     OW52169   7.548   1.169   4.174
16721SOL    HW152170   7.491   1.165   4.250
16721SOL    HW252171   7.617   1.230   4.199
16722SOL     OW52172   2.451   3.877   7.414
16722SOL    HW152173   2.544   3.879   7.438
16722SOL    HW252174   2.451   3.879   7.318
16723SOL     OW52175   1.344   5.671   5.488
16723SOL    HW152176   1.380   5.712   5.566
16723SOL    HW252177   1.362   5.577   5.499
16724SOL     OW52178   6.867  10.154   6.485
16724SOL    HW152179   6.928  10.179   6.416
16724SOL    HW252180   6.908  10.184   6.566
16725SOL     OW52181   3.374   5.211   7.487
16725SOL    HW152182   3.447   5.218   7.425
16725SOL    HW252183   3.296   5.223   7.433
16726SOL     OW52184   5.149   1.306   6.729
16726SOL    HW152185   5.115   1.379   6.779
16726SOL    HW252186   5.122   1.228   6.778
16727SOL     OW52187   4.361   2.461  10.362
16727SOL    HW152188   4.301   2.534  10.349
16727SOL    HW252189   4.382   2.463  10.455
16728SOL     OW52190   4.277   9.122   6.025
16728SOL    HW152191   4.336   9.049   6.044
16728SOL    HW252192   4.335   9.193   5.997
16729SOL     OW52193   1.805   4.073   9.931
16729SOL    HW152194   1.885   4.034   9.966
16729SOL    HW252195   1.746   4.078  10.006
16730SOL     OW52196   9.300   5.737   4.527
16730SOL    HW152197   9.263   5.660   4.571
16730SOL    HW252198   9.303   5.712   4.434
16731SOL     OW52199  10.758   1.898   9.497
16731SOL    HW152200  10.783   1.871   9.408
16731SOL    HW252201  10.767   1.993   9.497
16732SOL     OW52202   5.742   7.615   8.328
16732SOL    HW152203   5.835   7.600   8.310
16732SOL    HW252204   5.710   7.531   8.361
16733SOL     OW52205   6.150   0.268   6.501
16733SOL    HW152206   6.230   0.289   6.549
16733SOL    HW252207   6.164   0.306   6.414
16734SOL     OW52208   3.317   1.000   7.758
16734SOL    HW152209   3.306   1.032   7.668
16734SOL    HW252210   3.256   0.926   7.765
16735SOL     OW52211   7.633   4.519  10.161
16735SOL    HW152212   7.602   4.428  10.159
16735SOL    HW252213   7.644   4.542  10.068
16736SOL     OW52214   4.322  10.522   5.622
16736SOL    HW152215   4.310  10.584   5.694
16736SOL    HW252216   4.246  10.464   5.627
16737SOL     OW52217   3.063   8.513   2.789
16737SOL    HW152218   3.005   8.447   2.827
16737SOL    HW252219   3.149   8.493   2.825
16738SOL     OW52220   3.297   7.109   1.491
16738SOL    HW152221   3.341   7.024   1.484
16738SOL    HW252222   3.362   7.166   1.532
16739SOL     OW52223   8.533  10.577   4.634
16739SOL    HW152224   8.623  10.569   4.602
16739SOL    HW252225   8.507  10.666   4.610
16740SOL     OW52226   1.605   4.175   6.193
16740SOL    HW152227   1.641   4.235   6.258
16740SOL    HW252228   1.613   4.088   6.233
16741SOL     OW52229  10.114   2.056   7.469
16741SOL    HW152230  10.168   1.982   7.498
16741SOL    HW252231  10.095   2.105   7.548
16742SOL     OW52232   1.962   5.907   9.228
16742SOL    HW152233   2.005   5.933   9.309
16742SOL    HW252234   2.008   5.827   9.201
16743SOL     OW52235   2.413   5.060   8.187
16743SOL    HW152236   2.456   4.994   8.241
16743SOL    HW252237   2.392   5.131   8.247
16744SOL     OW52238   7.586  10.666   1.419
16744SOL    HW152239   7.508  10.693   1.468
16744SOL    HW252240   7.651  10.734   1.437
16745SOL     OW52241   7.978   9.919   5.257
16745SOL    HW152242   8.009   9.851   5.317
16745SOL    HW252243   7.922   9.871   5.195
16746SOL     OW52244   3.127   2.055   8.152
16746SOL    HW152245   3.113   2.127   8.090
16746SOL    HW252246   3.218   2.029   8.137
16747SOL     OW52247   1.401   3.429   7.599
16747SOL    HW152248   1.475   3.486   7.620
16747SOL    HW252249   1.430   3.379   7.522
16748SOL     OW52250   4.796   2.249   4.529
16748SOL    HW152251   4.775   2.286   4.443
16748SOL    HW252252   4.853   2.174   4.510
16749SOL     OW52253   9.487  11.021  10.298
16749SOL    HW152254   9.450  11.006  10.211
16749SOL    HW252255   9.537  11.103  10.289
16750SOL     OW52256   6.880   6.819   5.880
16750SOL    HW152257   6.933   6.774   5.946
16750SOL    HW252258   6.840   6.748   5.829
16751SOL     OW52259   9.475   8.560   7.167
16751SOL    HW152260   9.467   8.652   7.191
16751SOL    HW252261   9.530   8.522   7.235
16752SOL     OW52262   9.706   3.167   8.003
16752SOL    HW152263   9.692   3.184   8.096
16752SOL    HW252264   9.618   3.163   7.966
16753SOL     OW52265   2.913   9.588   1.902
16753SOL    HW152266   2.955   9.582   1.988
16753SOL    HW252267   2.955   9.519   1.850
16754SOL     OW52268   2.488   4.403   6.190
16754SOL    HW152269   2.463   4.463   6.259
16754SOL    HW252270   2.410   4.396   6.134
16755SOL     OW52271   6.606   4.073   5.696
16755SOL    HW152272   6.622   4.066   5.790
16755SOL    HW252273   6.694   4.070   5.657
16756SOL     OW52274   6.745   5.296   5.833
16756SOL    HW152275   6.656   5.261   5.830
16756SOL    HW252276   6.800   5.225   5.799
16757SOL     OW52277   3.373   3.025   7.962
16757SOL    HW152278   3.406   2.942   7.927
16757SOL    HW252279   3.302   3.048   7.903
16758SOL     OW52280   8.146   3.571   7.678
16758SOL    HW152281   8.109   3.658   7.662
16758SOL    HW252282   8.111   3.545   7.763
16759SOL     OW52283   9.617   4.039   7.416
16759SOL    HW152284   9.670   4.095   7.473
16759SOL    HW252285   9.680   3.979   7.376
16760SOL     OW52286  10.371   4.416   7.704
16760SOL    HW152287  10.344   4.505   7.724
16760SOL    HW252288  10.454   4.404   7.751
16761SOL     OW52289   4.989  10.991   5.373
16761SOL    HW152290   4.907  11.020   5.413
16761SOL    HW252291   4.980  11.015   5.281
16762SOL     OW52292   9.030  10.806   9.987
16762SOL    HW152293   9.007  10.891  10.025
16762SOL    HW252294   8.952  10.780   9.938
16763SOL     OW52295   2.336   1.008  10.002
16763SOL    HW152296   2.318   1.022   9.909
16763SOL    HW252297   2.257   1.037  10.046
16764SOL     OW52298   4.853   0.833   4.577
16764SOL    HW152299   4.899   0.916   4.585
16764SOL    HW252300   4.801   0.825   4.657
16765SOL     OW52301   3.073   1.217   8.854
16765SOL    HW152302   3.095   1.274   8.780
16765SOL    HW252303   3.138   1.238   8.921
16766SOL     OW52304   3.844   5.264   4.795
16766SOL    HW152305   3.749   5.262   4.789
16766SOL    HW252306   3.874   5.237   4.708
16767SOL     OW52307   3.247   1.499  10.450
16767SOL    HW152308   3.200   1.582  10.449
16767SOL    HW252309   3.268   1.484  10.542
16768SOL     OW52310   4.276   4.729   1.705
16768SOL    HW152311   4.328   4.669   1.759
16768SOL    HW252312   4.199   4.748   1.758
16769SOL     OW52313   6.992   2.541   4.224
16769SOL    HW152314   6.906   2.526   4.184
16769SOL    HW252315   7.028   2.453   4.236
16770SOL     OW52316   7.826   3.789  10.891
16770SOL    HW152317   7.889   3.850  10.928
16770SOL    HW252318   7.799   3.734  10.964
16771SOL     OW52319  10.166   2.371   8.297
16771SOL    HW152320  10.237   2.429   8.325
16771SOL    HW252321  10.199   2.283   8.315
16772SOL     OW52322   1.916   0.894   1.070
16772SOL    HW152323   1.982   0.844   1.021
16772SOL    HW252324   1.952   0.900   1.158
16773SOL     OW52325   5.717   1.393   3.161
16773SOL    HW152326   5.659   1.460   3.124
16773SOL    HW252327   5.675   1.310   3.138
16774SOL     OW52328   5.928   1.952   6.412
16774SOL    HW152329   6.003   1.901   6.380
16774SOL    HW252330   5.945   2.041   6.381
16775SOL     OW52331   6.963   4.929   9.185
16775SOL    HW152332   6.957   5.020   9.158
16775SOL    HW252333   6.878   4.891   9.162
16776SOL     OW52334   0.537   1.327   7.290
16776SOL    HW152335   0.536   1.416   7.255
16776SOL    HW252336   0.489   1.275   7.225
16777SOL     OW52337   3.986  10.798   6.444
16777SOL    HW152338   3.947  10.717   6.477
16777SOL    HW252339   4.078  10.793   6.471
16778SOL     OW52340   8.578   1.477   5.649
16778SOL    HW152341   8.527   1.479   5.730
16778SOL    HW252342   8.516   1.449   5.582
16779SOL     OW52343   1.644   0.718   0.353
16779SOL    HW152344   1.667   0.723   0.260
16779SOL    HW252345   1.559   0.674   0.354
16780SOL     OW52346   7.169   8.462   0.025
16780SOL    HW152347   7.134   8.509   0.101
16780SOL    HW252348   7.135   8.509  -0.051
16781SOL     OW52349   0.317   3.965   3.868
16781SOL    HW152350   0.264   3.963   3.788
16781SOL    HW252351   0.407   3.965   3.837
16782SOL     OW52352  10.104   2.748   9.196
16782SOL    HW152353  10.131   2.814   9.259
16782SOL    HW252354  10.011   2.765   9.180
16783SOL     OW52355   7.385   5.731  10.367
16783SOL    HW152356   7.340   5.747  10.284
16783SOL    HW252357   7.412   5.639  10.362
16784SOL     OW52358   9.866   4.823   8.334
16784SOL    HW152359   9.784   4.856   8.297
16784SOL    HW252360   9.929   4.893   8.320
16785SOL     OW52361   4.416  11.016  10.651
16785SOL    HW152362   4.342  11.074  10.636
16785SOL    HW252363   4.414  10.997  10.744
16786SOL     OW52364   6.616   3.783   8.379
16786SOL    HW152365   6.662   3.852   8.331
16786SOL    HW252366   6.566   3.829   8.446
16787SOL     OW52367   0.772   3.491   1.412
16787SOL    HW152368   0.782   3.458   1.501
16787SOL    HW252369   0.841   3.447   1.362
16788SOL     OW52370   4.002   7.698   8.095
16788SOL    HW152371   4.054   7.750   8.155
16788SOL    HW252372   4.035   7.608   8.106
16789SOL     OW52373   2.193   0.882   0.239
16789SOL    HW152374   2.247   0.864   0.162
16789SOL    HW252375   2.154   0.967   0.221
16790SOL     OW52376   4.584   2.539   3.786
16790SOL    HW152377   4.660   2.581   3.826
16790SOL    HW252378   4.588   2.566   3.694
16791SOL     OW52379   8.531   7.911   4.741
16791SOL    HW152380   8.466   7.884   4.805
16791SOL    HW252381   8.484   7.911   4.658
16792SOL     OW52382   3.694   6.472   3.057
16792SOL    HW152383   3.650   6.482   3.141
16792SOL    HW252384   3.687   6.378   3.037
16793SOL     OW52385   1.177   1.254   8.337
16793SOL    HW152386   1.156   1.347   8.333
16793SOL    HW252387   1.211   1.233   8.250
16794SOL     OW52388   9.839   2.857   0.159
16794SOL    HW152389   9.821   2.827   0.070
16794SOL    HW252390   9.795   2.793   0.215
16795SOL     OW52391   5.287   0.644   5.405
16795SOL    HW152392   5.344   0.657   5.481
16795SOL    HW252393   5.343   0.601   5.340
16796SOL     OW52394  10.939   8.194   3.292
16796SOL    HW152395  10.914   8.279   3.257
16796SOL    HW252396  10.932   8.135   3.217
16797SOL     OW52397   6.750   9.530   5.861
16797SOL    HW152398   6.831   9.530   5.912
16797SOL    HW252399   6.708   9.447   5.883
16798SOL     OW52400   1.834  10.820   7.123
16798SOL    HW152401   1.795  10.773   7.197
16798SOL    HW252402   1.926  10.830   7.146
16799SOL     OW52403   8.727   4.776   6.106
16799SOL    HW152404   8.715   4.682   6.091
16799SOL    HW252405   8.780   4.781   6.185
16800SOL     OW52406   9.231   2.865   6.802
16800SOL    HW152407   9.207   2.774   6.819
16800SOL    HW252408   9.147   2.910   6.793
16801SOL     OW52409   7.476   1.002   0.403
16801SOL    HW152410   7.425   0.981   0.481
16801SOL    HW252411   7.426   1.071   0.359
16802SOL     OW52412   0.171   7.508   3.267
16802SOL    HW152413   0.129   7.480   3.185
16802SOL    HW252414   0.099   7.545   3.319
16803SOL     OW52415   7.844   2.034   9.603
16803SOL    HW152416   7.772   2.094   9.585
16803SOL    HW252417   7.827   1.959   9.546
16804SOL     OW52418  10.392   1.681   6.437
16804SOL    HW152419  10.466   1.704   6.381
16804SOL    HW252420  10.361   1.764   6.471
16805SOL     OW52421   4.745   4.927   8.070
16805SOL    HW152422   4.776   5.004   8.117
16805SOL    HW252423   4.661   4.905   8.111
16806SOL     OW52424   2.848   9.931   0.576
16806SOL    HW152425   2.796   9.977   0.510
16806SOL    HW252426   2.788   9.916   0.649
16807SOL     OW52427   3.901  10.185   8.016
16807SOL    HW152428   3.907  10.268   8.062
16807SOL    HW252429   3.991  10.165   7.990
16808SOL     OW52430   3.482   5.985   7.474
16808SOL    HW152431   3.417   5.953   7.411
16808SOL    HW252432   3.547   5.915   7.479
16809SOL     OW52433   8.627  10.016  11.083
16809SOL    HW152434   8.654  10.093  11.033
16809SOL    HW252435   8.709   9.972  11.105
16810SOL     OW52436   5.793   5.402   1.800
16810SOL    HW152437   5.748   5.418   1.883
16810SOL    HW252438   5.723   5.378   1.739
16811SOL     OW52439   6.278  10.208   6.527
16811SOL    HW152440   6.315  10.204   6.438
16811SOL    HW252441   6.353  10.193   6.584
16812SOL     OW52442   3.201   3.794   3.674
16812SOL    HW152443   3.239   3.870   3.718
16812SOL    HW252444   3.109   3.794   3.701
16813SOL     OW52445   7.517   5.340   2.732
16813SOL    HW152446   7.479   5.332   2.644
16813SOL    HW252447   7.543   5.432   2.739
16814SOL     OW52448   7.552   2.014   3.534
16814SOL    HW152449   7.596   2.098   3.527
16814SOL    HW252450   7.569   1.971   3.450
16815SOL     OW52451   7.238   5.495  11.099
16815SOL    HW152452   7.266   5.585  11.086
16815SOL    HW252453   7.257   5.452  11.015
16816SOL     OW52454   4.805   3.654   7.035
16816SOL    HW152455   4.783   3.620   6.948
16816SOL    HW252456   4.900   3.641   7.042
16817SOL     OW52457  10.678   3.695   9.784
16817SOL    HW152458  10.630   3.639   9.723
16817SOL    HW252459  10.630   3.688   9.866
16818SOL     OW52460   7.945   0.958   8.287
16818SOL    HW152461   8.033   0.920   8.282
16818SOL    HW252462   7.925   0.960   8.380
16819SOL     OW52463   6.037   4.906   2.306
16819SOL    HW152464   6.125   4.941   2.322
16819SOL    HW252465   6.043   4.814   2.332
16820SOL     OW52466   7.355   0.527   4.461
16820SOL    HW152467   7.396   0.552   4.543
16820SOL    HW252468   7.338   0.433   4.470
16821SOL     OW52469  10.482   3.966   9.376
16821SOL    HW152470  10.531   4.030   9.428
16821SOL    HW252471  10.400   4.010   9.354
16822SOL     OW52472   6.522   2.220   8.012
16822SOL    HW152473   6.579   2.287   8.049
16822SOL    HW252474   6.452   2.269   7.969
16823SOL     OW52475   2.717   7.925   9.842
16823SOL    HW152476   2.666   7.965   9.912
16823SOL    HW252477   2.797   7.895   9.884
16824SOL     OW52478   5.541   4.101   0.784
16824SOL    HW152479   5.635   4.110   0.768
16824SOL    HW252480   5.532   4.013   0.821
16825SOL     OW52481   5.040   1.030   1.609
16825SOL    HW152482   4.975   1.100   1.605
16825SOL    HW252483   5.109   1.065   1.665
16826SOL     OW52484   2.190  10.860   7.143
16826SOL    HW152485   2.250  10.911   7.197
16826SOL    HW252486   2.109  10.856   7.194
16827SOL     OW52487   5.470  10.077   7.331
16827SOL    HW152488   5.552  10.076   7.380
16827SOL    HW252489   5.497  10.089   7.240
16828SOL     OW52490   0.307  10.536   0.748
16828SOL    HW152491   0.322  10.491   0.664
16828SOL    HW252492   0.394  10.553   0.782
16829SOL     OW52493   8.647   4.299   3.720
16829SOL    HW152494   8.729   4.299   3.670
16829SOL    HW252495   8.580   4.275   3.655
16830SOL     OW52496   7.275   6.308   5.440
16830SOL    HW152497   7.331   6.324   5.364
16830SOL    HW252498   7.190   6.283   5.403
16831SOL     OW52499   9.283   4.130   9.238
16831SOL    HW152500   9.302   4.182   9.160
16831SOL    HW252501   9.207   4.173   9.277
16832SOL     OW52502   3.464   4.736   1.044
16832SOL    HW152503   3.399   4.804   1.061
16832SOL    HW252504   3.532   4.780   0.994
16833SOL     OW52505   4.390  10.004   7.521
16833SOL    HW152506   4.440   9.940   7.470
16833SOL    HW252507   4.439  10.013   7.602
16834SOL     OW52508   0.126   9.922   6.106
16834SOL    HW152509   0.043   9.878   6.085
16834SOL    HW252510   0.167   9.936   6.020
16835SOL     OW52511   2.432   5.341   7.998
16835SOL    HW152512   2.465   5.401   7.931
16835SOL    HW252513   2.433   5.392   8.078
16836SOL     OW52514   6.101   6.708   7.447
16836SOL    HW152515   6.026   6.747   7.492
16836SOL    HW252516   6.068   6.625   7.413
16837SOL     OW52517   0.936   8.232   2.782
16837SOL    HW152518   0.873   8.248   2.711
16837SOL    HW252519   0.891   8.171   2.841
16838SOL     OW52520   3.708   6.327   5.729
16838SOL    HW152521   3.700   6.414   5.766
16838SOL    HW252522   3.711   6.268   5.805
16839SOL     OW52523   4.548  10.269   5.446
16839SOL    HW152524   4.490  10.336   5.481
16839SOL    HW252525   4.577  10.220   5.523
16840SOL     OW52526   1.711   8.941   5.344
16840SOL    HW152527   1.728   9.014   5.285
16840SOL    HW252528   1.622   8.955   5.376
16841SOL     OW52529   8.927   6.639   4.622
16841SOL    HW152530   8.969   6.559   4.654
16841SOL    HW252531   8.838   6.612   4.601
16842SOL     OW52532   5.188   3.484   7.484
16842SOL    HW152533   5.276   3.454   7.460
16842SOL    HW252534   5.151   3.517   7.402
16843SOL     OW52535   6.068   3.979  10.467
16843SOL    HW152536   6.127   4.018  10.402
16843SOL    HW252537   6.105   4.004  10.551
16844SOL     OW52538   8.269   5.508   3.581
16844SOL    HW152539   8.174   5.511   3.577
16844SOL    HW252540   8.297   5.599   3.569
16845SOL     OW52541  10.322   4.512   9.487
16845SOL    HW152542  10.286   4.545   9.569
16845SOL    HW252543  10.252   4.459   9.449
16846SOL     OW52544   3.734   0.339   3.827
16846SOL    HW152545   3.708   0.408   3.887
16846SOL    HW252546   3.731   0.380   3.740
16847SOL     OW52547   3.249   6.234   8.290
16847SOL    HW152548   3.243   6.311   8.234
16847SOL    HW252549   3.167   6.187   8.275
16848SOL     OW52550   5.454  10.507   6.103
16848SOL    HW152551   5.515  10.554   6.160
16848SOL    HW252552   5.368  10.542   6.126
16849SOL     OW52553   6.312   9.378  10.252
16849SOL    HW152554   6.294   9.345  10.164
16849SOL    HW252555   6.405   9.399  10.251
16850SOL     OW52556   5.616   6.227   8.467
16850SOL    HW152557   5.526   6.259   8.465
16850SOL    HW252558   5.621   6.165   8.393
16851SOL     OW52559   9.619   9.124   8.265
16851SOL    HW152560   9.649   9.074   8.341
16851SOL    HW252561   9.535   9.084   8.242
16852SOL     OW52562   5.353   1.270   5.834
16852SOL    HW152563   5.279   1.312   5.791
16852SOL    HW252564   5.403   1.231   5.762
16853SOL     OW52565   0.414   3.732   9.379
16853SOL    HW152566   0.399   3.809   9.324
16853SOL    HW252567   0.389   3.658   9.323
16854SOL     OW52568   0.853   8.592   4.589
16854SOL    HW152569   0.948   8.601   4.581
16854SOL    HW252570   0.818   8.661   4.533
16855SOL     OW52571   5.647   6.363   6.749
16855SOL    HW152572   5.720   6.332   6.802
16855SOL    HW252573   5.577   6.299   6.764
16856SOL     OW52574   5.239   1.536   8.806
16856SOL    HW152575   5.316   1.528   8.749
16856SOL    HW252576   5.188   1.457   8.787
16857SOL     OW52577   0.369   3.681   1.530
16857SOL    HW152578   0.434   3.671   1.461
16857SOL    HW252579   0.290   3.709   1.484
16858SOL     OW52580   7.286   4.552   9.187
16858SOL    HW152581   7.242   4.542   9.271
16858SOL    HW252582   7.250   4.632   9.149
16859SOL     OW52583   0.677   5.409   2.628
16859SOL    HW152584   0.714   5.486   2.586
16859SOL    HW252585   0.753   5.361   2.661
16860SOL     OW52586   5.156   1.278   7.378
16860SOL    HW152587   5.147   1.333   7.300
16860SOL    HW252588   5.246   1.293   7.408
16861SOL     OW52589   5.451   4.559   5.508
16861SOL    HW152590   5.400   4.633   5.539
16861SOL    HW252591   5.432   4.554   5.414
16862SOL     OW52592   4.353   1.851   8.258
16862SOL    HW152593   4.314   1.832   8.172
16862SOL    HW252594   4.434   1.800   8.259
16863SOL     OW52595   7.177   3.301   6.101
16863SOL    HW152596   7.251   3.330   6.154
16863SOL    HW252597   7.178   3.358   6.024
16864SOL     OW52598   0.269   1.210   6.747
16864SOL    HW152599   0.340   1.269   6.723
16864SOL    HW252600   0.193   1.267   6.759
16865SOL     OW52601   7.750   3.167   7.635
16865SOL    HW152602   7.777   3.230   7.568
16865SOL    HW252603   7.787   3.084   7.605
16866SOL     OW52604   6.153   3.398   7.176
16866SOL    HW152605   6.236   3.438   7.149
16866SOL    HW252606   6.096   3.472   7.196
16867SOL     OW52607   5.184   2.464   0.882
16867SOL    HW152608   5.207   2.441   0.972
16867SOL    HW252609   5.221   2.551   0.869
16868SOL     OW52610  10.260   7.859   7.718
16868SOL    HW152611  10.216   7.836   7.800
16868SOL    HW252612  10.199   7.917   7.673
16869SOL     OW52613   1.484   4.051   8.198
16869SOL    HW152614   1.559   4.039   8.140
16869SOL    HW252615   1.519   4.098   8.273
16870SOL     OW52616   2.018   7.883   6.540
16870SOL    HW152617   2.012   7.972   6.572
16870SOL    HW252618   2.007   7.891   6.445
16871SOL     OW52619   7.079   1.434   3.696
16871SOL    HW152620   7.012   1.493   3.731
16871SOL    HW252621   7.124   1.485   3.629
16872SOL     OW52622   4.532   1.977   8.770
16872SOL    HW152623   4.561   1.930   8.691
16872SOL    HW252624   4.612   2.014   8.806
16873SOL     OW52625   0.358   1.009   5.334
16873SOL    HW152626   0.384   1.021   5.242
16873SOL    HW252627   0.364   1.096   5.372
16874SOL     OW52628   4.762   3.104   3.921
16874SOL    HW152629   4.807   3.188   3.918
16874SOL    HW252630   4.676   3.124   3.956
16875SOL     OW52631   2.714   9.442   4.021
16875SOL    HW152632   2.795   9.428   4.069
16875SOL    HW252633   2.689   9.354   3.991
16876SOL     OW52634   1.977   3.529   7.077
16876SOL    HW152635   1.982   3.611   7.125
16876SOL    HW252636   2.066   3.514   7.046
16877SOL     OW52637  11.011   3.003   8.387
16877SOL    HW152638  10.930   2.952   8.381
16877SOL    HW252639  11.081   2.938   8.378
16878SOL     OW52640   8.057   8.444   5.663
16878SOL    HW152641   8.109   8.375   5.621
16878SOL    HW252642   8.083   8.524   5.618
16879SOL     OW52643   3.498   1.294   6.595
16879SOL    HW152644   3.555   1.289   6.518
16879SOL    HW252645   3.523   1.219   6.649
16880SOL     OW52646   5.597  10.655   1.997
16880SOL    HW152647   5.556  10.592   2.055
16880SOL    HW252648   5.684  10.670   2.035
16881SOL     OW52649   9.369   3.589   1.153
16881SOL    HW152650   9.300   3.530   1.123
16881SOL    HW252651   9.323   3.668   1.181
16882SOL     OW52652  10.773  10.968   9.205
16882SOL    HW152653  10.848  10.954   9.262
16882SOL    HW252654  10.717  10.893   9.220
16883SOL     OW52655   8.563   6.957   2.688
16883SOL    HW152656   8.599   6.893   2.749
16883SOL    HW252657   8.535   7.030   2.743
16884SOL     OW52658   3.704   3.533   8.698
16884SOL    HW152659   3.750   3.487   8.768
16884SOL    HW252660   3.617   3.550   8.733
16885SOL     OW52661   0.006   5.415  10.863
16885SOL    HW152662  -0.025   5.361  10.790
16885SOL    HW252663   0.019   5.501  10.824
16886SOL     OW52664   7.500   0.508  10.224
16886SOL    HW152665   7.413   0.473  10.245
16886SOL    HW252666   7.488   0.553  10.140
16887SOL     OW52667   3.408   7.812   9.843
16887SOL    HW152668   3.478   7.871   9.870
16887SOL    HW252669   3.429   7.789   9.752
16888SOL     OW52670   4.921   1.421   8.101
16888SOL    HW152671   4.955   1.509   8.086
16888SOL    HW252672   4.893   1.421   8.192
16889SOL     OW52673   3.765   0.282   9.201
16889SOL    HW152674   3.790   0.346   9.135
16889SOL    HW252675   3.756   0.200   9.152
16890SOL     OW52676   3.144   3.264   7.086
16890SOL    HW152677   3.053   3.240   7.069
16890SOL    HW252678   3.147   3.358   7.072
16891SOL     OW52679   0.966   3.301   0.470
16891SOL    HW152680   0.880   3.291   0.429
16891SOL    HW252681   0.964   3.388   0.510
16892SOL     OW52682   2.438   1.986   2.414
16892SOL    HW152683   2.425   1.897   2.448
16892SOL    HW252684   2.430   2.043   2.490
16893SOL     OW52685   6.526   5.776   6.675
16893SOL    HW152686   6.476   5.721   6.735
16893SOL    HW252687   6.470   5.785   6.598
16894SOL     OW52688   6.397   9.199   9.265
16894SOL    HW152689   6.448   9.123   9.295
16894SOL    HW252690   6.410   9.200   9.170
16895SOL     OW52691   5.441   5.074   9.644
16895SOL    HW152692   5.348   5.083   9.663
16895SOL    HW252693   5.485   5.118   9.716
16896SOL     OW52694  10.538   9.127   2.898
16896SOL    HW152695  10.506   9.037   2.895
16896SOL    HW252696  10.476   9.173   2.954
16897SOL     OW52697   8.389   5.539   6.474
16897SOL    HW152698   8.377   5.450   6.508
16897SOL    HW252699   8.472   5.534   6.426
16898SOL     OW52700   0.891   1.998  10.099
16898SOL    HW152701   0.977   1.998  10.141
16898SOL    HW252702   0.887   1.914  10.052
16899SOL     OW52703  10.840   3.808   9.206
16899SOL    HW152704  10.907   3.818   9.274
16899SOL    HW252705  10.847   3.887   9.153
16900SOL     OW52706   0.024   2.970   1.745
16900SOL    HW152707  -0.024   3.051   1.726
16900SOL    HW252708   0.084   2.992   1.816
16901SOL     OW52709   8.711   4.072   8.205
16901SOL    HW152710   8.698   3.979   8.186
16901SOL    HW252711   8.631   4.114   8.173
16902SOL     OW52712   7.131   6.515   3.739
16902SOL    HW152713   7.171   6.549   3.818
16902SOL    HW252714   7.149   6.421   3.742
16903SOL     OW52715  10.574   4.858   9.700
16903SOL    HW152716  10.557   4.811   9.781
16903SOL    HW252717  10.561   4.792   9.631
16904SOL     OW52718   8.688   4.578   0.942
16904SOL    HW152719   8.639   4.549   0.865
16904SOL    HW252720   8.717   4.666   0.920
16905SOL     OW52721   5.887   2.086  10.603
16905SOL    HW152722   5.860   2.164  10.650
16905SOL    HW252723   5.833   2.016  10.639
16906SOL     OW52724   4.990   1.277  10.367
16906SOL    HW152725   5.062   1.285  10.429
16906SOL    HW252726   5.022   1.319  10.287
16907SOL     OW52727   7.444   2.731   5.160
16907SOL    HW152728   7.435   2.742   5.254
16907SOL    HW252729   7.418   2.640   5.144
16908SOL     OW52730   3.580   9.149   8.824
16908SOL    HW152731   3.558   9.104   8.742
16908SOL    HW252732   3.674   9.135   8.835
16909SOL     OW52733  11.043   8.329   0.416
16909SOL    HW152734  10.996   8.257   0.458
16909SOL    HW252735  10.975   8.391   0.392
16910SOL     OW52736   2.108  10.513   6.446
16910SOL    HW152737   2.095  10.596   6.492
16910SOL    HW252738   2.176  10.532   6.381
16911SOL     OW52739   4.762   2.623   9.101
16911SOL    HW152740   4.765   2.539   9.147
16911SOL    HW252741   4.695   2.611   9.033
16912SOL     OW52742   7.158   3.821   1.516
16912SOL    HW152743   7.192   3.841   1.603
16912SOL    HW252744   7.236   3.803   1.463
16913SOL     OW52745   9.637  10.977   0.017
16913SOL    HW152746   9.708  11.024  -0.027
16913SOL    HW252747   9.606  10.913  -0.047
16914SOL     OW52748   5.838   1.192   6.932
16914SOL    HW152749   5.927   1.171   6.904
16914SOL    HW252750   5.849   1.262   6.996
16915SOL     OW52751   8.692   4.164   9.917
16915SOL    HW152752   8.771   4.204   9.881
16915SOL    HW252753   8.714   4.071   9.924
16916SOL     OW52754  11.076   1.785   9.494
16916SOL    HW152755  11.017   1.779   9.419
16916SOL    HW252756  11.075   1.877   9.518
16917SOL     OW52757   4.552   9.148   0.164
16917SOL    HW152758   4.626   9.100   0.201
16917SOL    HW252759   4.589   9.197   0.092
16918SOL     OW52760   6.444   7.791  10.122
16918SOL    HW152761   6.411   7.814  10.035
16918SOL    HW252762   6.400   7.851  10.181
16919SOL     OW52763   3.635   0.387   2.325
16919SOL    HW152764   3.678   0.468   2.353
16919SOL    HW252765   3.605   0.405   2.236
16920SOL     OW52766   4.279   7.924   9.765
16920SOL    HW152767   4.353   7.867   9.785
16920SOL    HW252768   4.303   7.967   9.683
16921SOL     OW52769   2.652   9.261   7.469
16921SOL    HW152770   2.701   9.195   7.419
16921SOL    HW252771   2.644   9.224   7.557
16922SOL     OW52772   4.467   6.183   8.341
16922SOL    HW152773   4.509   6.104   8.305
16922SOL    HW252774   4.395   6.200   8.281
16923SOL     OW52775   6.721   9.817   8.925
16923SOL    HW152776   6.650   9.764   8.889
16923SOL    HW252777   6.677   9.886   8.974
16924SOL     OW52778   5.815   4.462   6.576
16924SOL    HW152779   5.745   4.526   6.561
16924SOL    HW252780   5.794   4.422   6.661
16925SOL     OW52781   2.196   6.233   9.365
16925SOL    HW152782   2.218   6.235   9.272
16925SOL    HW252783   2.237   6.311   9.401
16926SOL     OW52784   1.847   9.417   6.609
16926SOL    HW152785   1.796   9.430   6.689
16926SOL    HW252786   1.865   9.323   6.607
16927SOL     OW52787   4.664   9.302   6.834
16927SOL    HW152788   4.670   9.387   6.876
16927SOL    HW252789   4.667   9.321   6.740
16928SOL     OW52790   8.304   3.150   2.287
16928SOL    HW152791   8.328   3.202   2.363
16928SOL    HW252792   8.340   3.198   2.212
16929SOL     OW52793   4.495   9.635   1.803
16929SOL    HW152794   4.513   9.546   1.772
16929SOL    HW252795   4.426   9.624   1.868
16930SOL     OW52796   5.925   3.352   9.124
16930SOL    HW152797   5.915   3.315   9.036
16930SOL    HW252798   6.011   3.394   9.122
16931SOL     OW52799   5.286  10.876   9.329
16931SOL    HW152800   5.376  10.844   9.316
16931SOL    HW252801   5.286  10.964   9.292
16932SOL     OW52802   0.236   0.701   7.470
16932SOL    HW152803   0.253   0.607   7.473
16932SOL    HW252804   0.319   0.741   7.495
16933SOL     OW52805   9.181   1.360   8.343
16933SOL    HW152806   9.184   1.441   8.292
16933SOL    HW252807   9.090   1.352   8.371
16934SOL     OW52808  11.097   2.699   1.722
16934SOL    HW152809  11.082   2.793   1.716
16934SOL    HW252810  11.178   2.691   1.772
16935SOL     OW52811   4.625   6.995   6.486
16935SOL    HW152812   4.604   7.010   6.578
16935SOL    HW252813   4.595   6.905   6.469
16936SOL     OW52814   3.006   2.264   3.661
16936SOL    HW152815   3.068   2.320   3.707
16936SOL    HW252816   3.033   2.175   3.683
16937SOL     OW52817   5.736   2.747   2.887
16937SOL    HW152818   5.822   2.732   2.925
16937SOL    HW252819   5.675   2.737   2.960
16938SOL     OW52820   3.139   9.944   3.400
16938SOL    HW152821   3.172  10.023   3.442
16938SOL    HW252822   3.069   9.913   3.457
16939SOL     OW52823   2.010   0.417   4.048
16939SOL    HW152824   1.937   0.368   4.010
16939SOL    HW252825   2.066   0.350   4.087
16940SOL     OW52826   7.860   7.708   8.131
16940SOL    HW152827   7.801   7.747   8.066
16940SOL    HW252828   7.919   7.653   8.079
16941SOL     OW52829   0.682   1.904   5.285
16941SOL    HW152830   0.618   1.968   5.315
16941SOL    HW252831   0.632   1.823   5.273
16942SOL     OW52832   3.794   4.203   0.653
16942SOL    HW152833   3.773   4.109   0.651
16942SOL    HW252834   3.741   4.238   0.724
16943SOL     OW52835   3.045   3.904   6.599
16943SOL    HW152836   3.014   3.951   6.521
16943SOL    HW252837   3.008   3.952   6.673
16944SOL     OW52838   8.564   9.175   7.405
16944SOL    HW152839   8.469   9.166   7.401
16944SOL    HW252840   8.596   9.111   7.341
16945SOL     OW52841   8.518   3.713  11.064
16945SOL    HW152842   8.523   3.644  10.998
16945SOL    HW252843   8.609   3.736  11.081
16946SOL     OW52844   7.928   2.909   1.058
16946SOL    HW152845   7.941   2.924   0.964
16946SOL    HW252846   7.908   2.815   1.065
16947SOL     OW52847   4.398   2.261   5.130
16947SOL    HW152848   4.465   2.231   5.191
16947SOL    HW252849   4.328   2.293   5.185
16948SOL     OW52850   5.604   9.226   1.085
16948SOL    HW152851   5.657   9.282   1.141
16948SOL    HW252852   5.588   9.148   1.138
16949SOL     OW52853  10.303   4.696   1.360
16949SOL    HW152854  10.339   4.750   1.289
16949SOL    HW252855  10.348   4.612   1.350
16950SOL     OW52856   6.777   0.087   5.861
16950SOL    HW152857   6.737   0.009   5.899
16950SOL    HW252858   6.733   0.160   5.903
16951SOL     OW52859   5.402   9.055   6.082
16951SOL    HW152860   5.325   9.105   6.055
16951SOL    HW252861   5.421   9.086   6.170
16952SOL     OW52862   5.531  10.266   0.253
16952SOL    HW152863   5.512  10.303   0.339
16952SOL    HW252864   5.620  10.295   0.233
16953SOL     OW52865   8.477   2.266   1.293
16953SOL    HW152866   8.551   2.283   1.351
16953SOL    HW252867   8.413   2.222   1.348
16954SOL     OW52868   4.414   3.943   0.773
16954SOL    HW152869   4.435   3.865   0.722
16954SOL    HW252870   4.322   3.933   0.795
16955SOL     OW52871   3.335   1.763   4.561
16955SOL    HW152872   3.286   1.724   4.488
16955SOL    HW252873   3.347   1.690   4.622
16956SOL     OW52874   2.370   6.081  10.191
16956SOL    HW152875   2.321   6.076  10.109
16956SOL    HW252876   2.444   6.021  10.177
16957SOL     OW52877   6.875   1.638   8.624
16957SOL    HW152878   6.909   1.724   8.648
16957SOL    HW252879   6.926   1.576   8.676
16958SOL     OW52880   2.419   8.534   5.031
16958SOL    HW152881   2.328   8.530   5.002
16958SOL    HW252882   2.417   8.510   5.123
16959SOL     OW52883   4.415   7.215  11.089
16959SOL    HW152884   4.458   7.152  11.147
16959SOL    HW252885   4.419   7.174  11.002
16960SOL     OW52886   5.470  11.090   6.930
16960SOL    HW152887   5.519  11.147   6.871
16960SOL    HW252888   5.410  11.149   6.976
16961SOL     OW52889   7.055   5.784   7.209
16961SOL    HW152890   6.966   5.813   7.228
16961SOL    HW252891   7.058   5.694   7.241
16962SOL     OW52892   1.871   4.219   2.037
16962SOL    HW152893   1.954   4.250   2.072
16962SOL    HW252894   1.829   4.173   2.110
16963SOL     OW52895   6.315   4.429   8.764
16963SOL    HW152896   6.285   4.513   8.799
16963SOL    HW252897   6.335   4.447   8.672
16964SOL     OW52898   8.834   2.547   6.140
16964SOL    HW152899   8.772   2.539   6.212
16964SOL    HW252900   8.780   2.548   6.061
16965SOL     OW52901   5.554   2.811   7.297
16965SOL    HW152902   5.506   2.734   7.327
16965SOL    HW252903   5.487   2.870   7.263
16966SOL     OW52904   6.745   3.887   3.445
16966SOL    HW152905   6.747   3.792   3.431
16966SOL    HW252906   6.776   3.923   3.362
16967SOL     OW52907   8.086   2.879   5.267
16967SOL    HW152908   8.048   2.900   5.181
16967SOL    HW252909   8.118   2.789   5.257
16968SOL     OW52910   3.168  10.562   2.810
16968SOL    HW152911   3.251  10.609   2.799
16968SOL    HW252912   3.165  10.502   2.735
16969SOL     OW52913   4.395   6.440   8.172
16969SOL    HW152914   4.367   6.526   8.142
16969SOL    HW252915   4.444   6.404   8.098
16970SOL     OW52916   6.012   1.548   6.157
16970SOL    HW152917   6.098   1.568   6.194
16970SOL    HW252918   5.973   1.485   6.218
16971SOL     OW52919   8.369   9.531   9.127
16971SOL    HW152920   8.360   9.541   9.032
16971SOL    HW252921   8.331   9.445   9.146
16972SOL     OW52922   7.350   9.287   7.793
16972SOL    HW152923   7.334   9.203   7.749
16972SOL    HW252924   7.264   9.328   7.798
16973SOL     OW52925   4.108   5.065   3.132
16973SOL    HW152926   4.106   5.136   3.068
16973SOL    HW252927   4.072   5.103   3.212
16974SOL     OW52928  11.089   7.261   1.997
16974SOL    HW152929  11.139   7.337   1.968
16974SOL    HW252930  11.033   7.294   2.067
16975SOL     OW52931   4.135   6.302   9.717
16975SOL    HW152932   4.143   6.313   9.622
16975SOL    HW252933   4.041   6.309   9.734
16976SOL     OW52934   8.450   1.947   3.814
16976SOL    HW152935   8.453   1.988   3.727
16976SOL    HW252936   8.430   1.855   3.796
16977SOL     OW52937   7.509   4.866   6.679
16977SOL    HW152938   7.589   4.883   6.629
16977SOL    HW252939   7.446   4.929   6.645
16978SOL     OW52940   1.262   9.958   6.890
16978SOL    HW152941   1.238   9.998   6.973
16978SOL    HW252942   1.352   9.928   6.903
16979SOL     OW52943   4.565   3.559   4.221
16979SOL    HW152944   4.546   3.618   4.294
16979SOL    HW252945   4.661   3.552   4.220
16980SOL     OW52946   7.697   0.821   3.671
16980SOL    HW152947   7.697   0.863   3.757
16980SOL    HW252948   7.660   0.887   3.612
16981SOL     OW52949   5.547   4.710   2.019
16981SOL    HW152950   5.458   4.723   1.986
16981SOL    HW252951   5.557   4.775   2.088
16982SOL     OW52952   6.031   1.640   8.774
16982SOL    HW152953   6.009   1.642   8.867
16982SOL    HW252954   6.125   1.660   8.771
16983SOL     OW52955   1.980   2.220   6.824
16983SOL    HW152956   1.950   2.152   6.885
16983SOL    HW252957   2.065   2.188   6.794
16984SOL     OW52958   2.684   2.972  10.311
16984SOL    HW152959   2.728   3.055  10.294
16984SOL    HW252960   2.620   2.964  10.240
16985SOL     OW52961   9.173   1.196   6.067
16985SOL    HW152962   9.115   1.120   6.068
16985SOL    HW252963   9.129   1.261   6.121
16986SOL     OW52964   7.152   8.457   6.712
16986SOL    HW152965   7.196   8.538   6.686
16986SOL    HW252966   7.179   8.443   6.803
16987SOL     OW52967   2.541   2.938   2.912
16987SOL    HW152968   2.596   2.948   2.834
16987SOL    HW252969   2.587   2.987   2.980
16988SOL     OW52970   0.477   2.817   1.718
16988SOL    HW152971   0.432   2.806   1.634
16988SOL    HW252972   0.518   2.732   1.735
16989SOL     OW52973   7.046   9.661   3.234
16989SOL    HW152974   7.087   9.684   3.317
16989SOL    HW252975   7.082   9.724   3.171
16990SOL     OW52976   8.611   9.797   0.281
16990SOL    HW152977   8.529   9.779   0.327
16990SOL    HW252978   8.663   9.848   0.343
16991SOL     OW52979   5.512   3.677   0.741
16991SOL    HW152980   5.591   3.726   0.717
16991SOL    HW252981   5.469   3.731   0.806
16992SOL     OW52982   6.285   0.825   2.442
16992SOL    HW152983   6.281   0.734   2.411
16992SOL    HW252984   6.205   0.865   2.409
16993SOL     OW52985   7.235   4.828   3.042
16993SOL    HW152986   7.261   4.746   3.084
16993SOL    HW252987   7.181   4.872   3.107
16994SOL     OW52988   1.006   4.330   4.141
16994SOL    HW152989   1.094   4.319   4.178
16994SOL    HW252990   0.997   4.424   4.127
16995SOL     OW52991   6.733  10.339   0.311
16995SOL    HW152992   6.717  10.415   0.256
16995SOL    HW252993   6.754  10.375   0.397
16996SOL     OW52994  10.919   9.820  10.648
16996SOL    HW152995  10.973   9.876  10.592
16996SOL    HW252996  10.831   9.827  10.611
16997SOL     OW52997   9.957   6.072   0.106
16997SOL    HW152998   9.996   6.131   0.042
16997SOL    HW252999  10.022   6.003   0.118
16998SOL     OW53000   2.784   5.003   3.018
16998SOL    HW153001   2.826   4.923   3.049
16998SOL    HW253002   2.700   5.005   3.064
16999SOL     OW53003   3.345   2.202   0.689
16999SOL    HW153004   3.437   2.220   0.709
16999SOL    HW253005   3.327   2.254   0.610
17000SOL     OW53006   5.451   6.266   7.030
17000SOL    HW153007   5.477   6.207   6.959
17000SOL    HW253008   5.438   6.208   7.105
17001SOL     OW53009   4.391  10.005   0.744
17001SOL    HW153010   4.406   9.918   0.707
17001SOL    HW253011   4.432  10.065   0.682
17002SOL     OW53012   4.008   8.031   1.245
17002SOL    HW153013   3.978   8.069   1.163
17002SOL    HW253014   3.992   7.937   1.234
17003SOL     OW53015   6.908   4.547   1.754
17003SOL    HW153016   6.945   4.504   1.831
17003SOL    HW253017   6.820   4.572   1.781
17004SOL     OW53018   4.307   2.830   6.582
17004SOL    HW153019   4.379   2.823   6.519
17004SOL    HW253020   4.350   2.850   6.665
17005SOL     OW53021   7.176  11.057   9.694
17005SOL    HW153022   7.152  11.052   9.601
17005SOL    HW253023   7.240  11.128   9.698
17006SOL     OW53024   4.260   2.475  10.629
17006SOL    HW153025   4.165   2.484  10.622
17006SOL    HW253026   4.286   2.544  10.690
17007SOL     OW53027   3.663   4.764  10.054
17007SOL    HW153028   3.601   4.691  10.055
17007SOL    HW253029   3.611   4.840  10.080
17008SOL     OW53030   6.505   0.726   8.399
17008SOL    HW153031   6.417   0.689   8.391
17008SOL    HW253032   6.493   0.819   8.382
17009SOL     OW53033   5.589   9.109   5.039
17009SOL    HW153034   5.669   9.143   4.999
17009SOL    HW253035   5.620   9.048   5.106
17010SOL     OW53036   9.119   6.578   7.337
17010SOL    HW153037   9.137   6.546   7.248
17010SOL    HW253038   9.131   6.501   7.393
17011SOL     OW53039   9.314   2.708   9.973
17011SOL    HW153040   9.395   2.751   9.999
17011SOL    HW253041   9.271   2.771   9.915
17012SOL     OW53042   3.826   4.761   1.205
17012SOL    HW153043   3.756   4.824   1.186
17012SOL    HW253044   3.825   4.701   1.130
17013SOL     OW53045  10.903   4.114   0.015
17013SOL    HW153046  10.848   4.186   0.045
17013SOL    HW253047  10.981   4.118   0.071
17014SOL     OW53048   5.909   5.643   8.301
17014SOL    HW153049   5.857   5.569   8.333
17014SOL    HW253050   5.933   5.692   8.379
17015SOL     OW53051  11.003   0.568   5.523
17015SOL    HW153052  11.017   0.662   5.534
17015SOL    HW253053  11.059   0.544   5.449
17016SOL     OW53054   6.197   9.361   9.353
17016SOL    HW153055   6.262   9.300   9.316
17016SOL    HW253056   6.233   9.385   9.438
17017SOL     OW53057   9.374   6.261   0.912
17017SOL    HW153058   9.418   6.264   0.827
17017SOL    HW253059   9.302   6.199   0.899
17018SOL     OW53060   4.181   0.744   9.348
17018SOL    HW153061   4.165   0.699   9.265
17018SOL    HW253062   4.226   0.824   9.323
17019SOL     OW53063   2.338   3.054   8.175
17019SOL    HW153064   2.322   3.147   8.160
17019SOL    HW253065   2.319   3.012   8.090
17020SOL     OW53066  10.337   0.222   4.455
17020SOL    HW153067  10.248   0.203   4.485
17020SOL    HW253068  10.330   0.304   4.406
17021SOL     OW53069   8.366   2.327   8.954
17021SOL    HW153070   8.426   2.380   8.902
17021SOL    HW253071   8.418   2.299   9.029
17022SOL     OW53072   9.089   1.007   7.110
17022SOL    HW153073   9.156   0.939   7.120
17022SOL    HW253074   9.010   0.959   7.085
17023SOL     OW53075   3.781   8.723   5.391
17023SOL    HW153076   3.783   8.816   5.412
17023SOL    HW253077   3.808   8.679   5.471
17024SOL     OW53078   4.500   0.514   6.457
17024SOL    HW153079   4.423   0.564   6.432
17024SOL    HW253080   4.486   0.428   6.417
17025SOL     OW53081   9.174   1.732   9.791
17025SOL    HW153082   9.174   1.795   9.863
17025SOL    HW253083   9.267   1.717   9.772
17026SOL     OW53084   6.105   8.256   9.343
17026SOL    HW153085   6.134   8.165   9.351
17026SOL    HW253086   6.010   8.252   9.356
17027SOL     OW53087   2.432   1.521   8.273
17027SOL    HW153088   2.454   1.607   8.238
17027SOL    HW253089   2.345   1.532   8.311
17028SOL     OW53090  10.964   8.156   1.665
17028SOL    HW153091  10.920   8.166   1.580
17028SOL    HW253092  10.894   8.133   1.726
17029SOL     OW53093   8.764   1.342   2.918
17029SOL    HW153094   8.733   1.331   2.828
17029SOL    HW253095   8.709   1.283   2.970
17030SOL     OW53096   9.532   0.202  10.151
17030SOL    HW153097   9.624   0.221  10.131
17030SOL    HW253098   9.496   0.170  10.068
17031SOL     OW53099   1.803   3.009  10.036
17031SOL    HW153100   1.811   2.994  10.130
17031SOL    HW253101   1.891   2.993  10.001
17032SOL     OW53102   9.071   3.797   4.041
17032SOL    HW153103   9.043   3.812   4.131
17032SOL    HW253104   9.146   3.737   4.048
17033SOL     OW53105   3.510   2.946   9.015
17033SOL    HW153106   3.492   3.008   8.944
17033SOL    HW253107   3.440   2.881   9.008
17034SOL     OW53108   6.210   3.621   0.184
17034SOL    HW153109   6.205   3.693   0.247
17034SOL    HW253110   6.283   3.644   0.127
17035SOL     OW53111   8.827   5.102   6.277
17035SOL    HW153112   8.774   5.028   6.306
17035SOL    HW253113   8.855   5.145   6.357
17036SOL     OW53114   2.631  10.598  10.991
17036SOL    HW153115   2.603  10.507  11.001
17036SOL    HW253116   2.716  10.592  10.948
17037SOL     OW53117   6.153  10.585   7.708
17037SOL    HW153118   6.073  10.532   7.713
17037SOL    HW253119   6.191  10.563   7.623
17038SOL     OW53120   7.412   9.484   1.647
17038SOL    HW153121   7.457   9.567   1.631
17038SOL    HW253122   7.412   9.475   1.742
17039SOL     OW53123   2.980   0.797   9.657
17039SOL    HW153124   2.927   0.801   9.736
17039SOL    HW253125   3.053   0.738   9.679
17040SOL     OW53126   0.940  10.228   9.348
17040SOL    HW153127   0.849  10.197   9.351
17040SOL    HW253128   0.977  10.184   9.271
17041SOL     OW53129   6.556   3.075   9.797
17041SOL    HW153130   6.587   3.091   9.886
17041SOL    HW253131   6.539   3.162   9.760
17042SOL     OW53132  10.144   5.389   0.816
17042SOL    HW153133  10.151   5.484   0.816
17042SOL    HW253134  10.123   5.366   0.906
17043SOL     OW53135   6.350   1.006   7.367
17043SOL    HW153136   6.375   1.057   7.444
17043SOL    HW253137   6.359   0.915   7.395
17044SOL     OW53138   4.635   2.462   5.408
17044SOL    HW153139   4.606   2.464   5.316
17044SOL    HW253140   4.731   2.464   5.403
17045SOL     OW53141   4.981   1.748   3.547
17045SOL    HW153142   4.977   1.825   3.490
17045SOL    HW253143   5.074   1.724   3.548
17046SOL     OW53144   5.558  10.935   0.171
17046SOL    HW153145   5.545  10.848   0.135
17046SOL    HW253146   5.470  10.972   0.179
17047SOL     OW53147   8.848   4.717   9.873
17047SOL    HW153148   8.768   4.715   9.926
17047SOL    HW253149   8.871   4.809   9.867
17048SOL     OW53150   5.372   3.537   2.086
17048SOL    HW153151   5.338   3.619   2.051
17048SOL    HW253152   5.464   3.555   2.106
17049SOL     OW53153  10.684  10.841   8.841
17049SOL    HW153154  10.621  10.843   8.913
17049SOL    HW253155  10.638  10.796   8.770
17050SOL     OW53156   6.511   5.806   2.508
17050SOL    HW153157   6.521   5.895   2.540
17050SOL    HW253158   6.522   5.751   2.585
17051SOL     OW53159   7.854   0.976   7.614
17051SOL    HW153160   7.869   0.986   7.520
17051SOL    HW253161   7.924   1.026   7.655
17052SOL     OW53162   1.003  10.694   2.960
17052SOL    HW153163   1.045  10.644   3.030
17052SOL    HW253164   1.060  10.770   2.947
17053SOL     OW53165   7.118   3.193   6.796
17053SOL    HW153166   7.141   3.151   6.713
17053SOL    HW253167   7.200   3.233   6.826
17054SOL     OW53168   3.334   7.111   0.719
17054SOL    HW153169   3.403   7.102   0.785
17054SOL    HW253170   3.323   7.205   0.709
17055SOL     OW53171   6.714   3.952   9.252
17055SOL    HW153172   6.671   3.931   9.335
17055SOL    HW253173   6.747   4.041   9.263
17056SOL     OW53174   6.135   3.637   9.076
17056SOL    HW153175   6.104   3.715   9.121
17056SOL    HW253176   6.230   3.641   9.083
17057SOL     OW53177   7.911   7.241   8.655
17057SOL    HW153178   7.867   7.271   8.575
17057SOL    HW253179   7.854   7.172   8.689
17058SOL     OW53180   5.230   4.830   8.895
17058SOL    HW153181   5.138   4.803   8.890
17058SOL    HW253182   5.272   4.784   8.822
17059SOL     OW53183   7.563  10.308   2.482
17059SOL    HW153184   7.598  10.283   2.396
17059SOL    HW253185   7.607  10.249   2.544
17060SOL     OW53186   1.270  10.287   5.231
17060SOL    HW153187   1.258  10.349   5.303
17060SOL    HW253188   1.267  10.341   5.152
17061SOL     OW53189   9.474   1.422   7.424
17061SOL    HW153190   9.561   1.390   7.447
17061SOL    HW253191   9.429   1.431   7.508
17062SOL     OW53192   0.771   7.860   0.841
17062SOL    HW153193   0.778   7.899   0.754
17062SOL    HW253194   0.853   7.884   0.885
17063SOL     OW53195   9.457   6.080   4.311
17063SOL    HW153196   9.416   6.138   4.246
17063SOL    HW253197   9.394   6.076   4.383
17064SOL     OW53198   5.941   3.981   2.539
17064SOL    HW153199   5.931   3.904   2.595
17064SOL    HW253200   5.960   3.945   2.452
17065SOL     OW53201   5.861  10.945   5.978
17065SOL    HW153202   5.847  10.880   5.909
17065SOL    HW253203   5.863  11.029   5.932
17066SOL     OW53204   5.399  10.715  10.730
17066SOL    HW153205   5.402  10.770  10.808
17066SOL    HW253206   5.376  10.775  10.659
17067SOL     OW53207   7.705  10.059   1.272
17067SOL    HW153208   7.636  10.094   1.215
17067SOL    HW253209   7.708  10.119   1.346
17068SOL     OW53210  10.036  10.869   6.017
17068SOL    HW153211   9.987  10.919   5.952
17068SOL    HW253212  10.121  10.913   6.022
17069SOL     OW53213   3.950   7.748   1.161
17069SOL    HW153214   3.873   7.709   1.202
17069SOL    HW253215   4.022   7.688   1.183
17070SOL     OW53216   1.495   8.824   9.146
17070SOL    HW153217   1.560   8.867   9.201
17070SOL    HW253218   1.486   8.736   9.184
17071SOL     OW53219   0.947   5.531   3.416
17071SOL    HW153220   0.983   5.590   3.350
17071SOL    HW253221   1.013   5.462   3.424
17072SOL     OW53222   0.647   4.689   3.336
17072SOL    HW153223   0.558   4.674   3.368
17072SOL    HW253224   0.646   4.654   3.246
17073SOL     OW53225   6.764   6.139  10.602
17073SOL    HW153226   6.756   6.154  10.696
17073SOL    HW253227   6.847   6.180  10.578
17074SOL     OW53228   7.041   2.125   0.038
17074SOL    HW153229   7.008   2.035   0.038
17074SOL    HW253230   7.136   2.115   0.029
17075SOL     OW53231   6.695   0.568   3.171
17075SOL    HW153232   6.605   0.596   3.157
17075SOL    HW253233   6.742   0.648   3.194
17076SOL     OW53234   2.818   4.799   9.564
17076SOL    HW153235   2.878   4.740   9.518
17076SOL    HW253236   2.731   4.770   9.536
17077SOL     OW53237   6.094   5.400   8.004
17077SOL    HW153238   6.081   5.348   8.083
17077SOL    HW253239   6.016   5.382   7.951
17078SOL     OW53240   1.788   3.709   8.150
17078SOL    HW153241   1.747   3.636   8.197
17078SOL    HW253242   1.791   3.679   8.059
17079SOL     OW53243   6.244   0.383   4.969
17079SOL    HW153244   6.328   0.377   4.922
17079SOL    HW253245   6.249   0.314   5.035
17080SOL     OW53246  10.361   8.695   6.392
17080SOL    HW153247  10.275   8.656   6.376
17080SOL    HW253248  10.420   8.620   6.399
17081SOL     OW53249   9.505   8.328   2.803
17081SOL    HW153250   9.412   8.325   2.779
17081SOL    HW253251   9.548   8.273   2.737
17082SOL     OW53252   9.057   3.747   9.413
17082SOL    HW153253   9.015   3.829   9.388
17082SOL    HW253254   9.146   3.754   9.379
17083SOL     OW53255   2.327   1.676   2.173
17083SOL    HW153256   2.254   1.658   2.232
17083SOL    HW253257   2.291   1.734   2.106
17084SOL     OW53258   1.215   1.362   5.134
17084SOL    HW153259   1.204   1.456   5.126
17084SOL    HW253260   1.142   1.325   5.084
17085SOL     OW53261   5.023   2.261   2.935
17085SOL    HW153262   4.959   2.245   2.865
17085SOL    HW253263   5.046   2.353   2.926
17086SOL     OW53264  10.343   9.372   1.712
17086SOL    HW153265  10.375   9.337   1.795
17086SOL    HW253266  10.329   9.294   1.657
17087SOL     OW53267   0.272   8.940   6.609
17087SOL    HW153268   0.258   9.002   6.537
17087SOL    HW253269   0.207   8.871   6.594
17088SOL     OW53270   3.168   1.357   8.630
17088SOL    HW153271   3.242   1.313   8.589
17088SOL    HW253272   3.193   1.449   8.632
17089SOL     OW53273  10.395   7.009   7.994
17089SOL    HW153274  10.468   7.058   8.032
17089SOL    HW253275  10.377   7.053   7.911
17090SOL     OW53276   7.984   2.710   7.258
17090SOL    HW153277   7.981   2.803   7.280
17090SOL    HW253278   7.893   2.682   7.260
17091SOL     OW53279   7.876   1.387   4.476
17091SOL    HW153280   7.896   1.294   4.487
17091SOL    HW253281   7.962   1.429   4.472
17092SOL     OW53282   6.124   9.958   0.393
17092SOL    HW153283   6.214   9.926   0.398
17092SOL    HW253284   6.096   9.933   0.305
17093SOL     OW53285   2.147   0.397   8.850
17093SOL    HW153286   2.189   0.380   8.765
17093SOL    HW253287   2.114   0.486   8.843
17094SOL     OW53288   9.306   4.836  10.460
17094SOL    HW153289   9.386   4.823  10.409
17094SOL    HW253290   9.303   4.760  10.519
17095SOL     OW53291   2.566   3.823   1.788
17095SOL    HW153292   2.490   3.765   1.793
17095SOL    HW253293   2.583   3.848   1.879
17096SOL     OW53294   7.514   6.628   5.839
17096SOL    HW153295   7.476   6.568   5.774
17096SOL    HW253296   7.545   6.702   5.787
17097SOL     OW53297   7.433   6.066   2.065
17097SOL    HW153298   7.348   6.058   2.021
17097SOL    HW253299   7.494   6.019   2.008
17098SOL     OW53300   5.709   0.240   0.028
17098SOL    HW153301   5.641   0.195   0.079
17098SOL    HW253302   5.750   0.170  -0.023
17099SOL     OW53303   5.785   4.625   9.575
17099SOL    HW153304   5.816   4.580   9.653
17099SOL    HW253305   5.748   4.707   9.607
17100SOL     OW53306   3.214   5.697   3.030
17100SOL    HW153307   3.132   5.648   3.024
17100SOL    HW253308   3.235   5.719   2.939
17101SOL     OW53309  10.848   1.391   1.060
17101SOL    HW153310  10.771   1.435   1.094
17101SOL    HW253311  10.849   1.306   1.104
17102SOL     OW53312   3.177   1.587   9.911
17102SOL    HW153313   3.258   1.555   9.951
17102SOL    HW253314   3.124   1.508   9.897
17103SOL     OW53315   2.302   9.815   7.493
17103SOL    HW153316   2.389   9.812   7.454
17103SOL    HW253317   2.245   9.845   7.422
17104SOL     OW53318   3.123   4.092   2.478
17104SOL    HW153319   3.142   4.177   2.439
17104SOL    HW253320   3.168   4.029   2.421
17105SOL     OW53321   6.643   8.000   7.573
17105SOL    HW153322   6.568   8.059   7.570
17105SOL    HW253323   6.684   8.016   7.658
17106SOL     OW53324   4.915   4.515   4.375
17106SOL    HW153325   5.007   4.495   4.356
17106SOL    HW253326   4.916   4.603   4.412
17107SOL     OW53327   0.154   1.770   1.475
17107SOL    HW153328   0.102   1.845   1.448
17107SOL    HW253329   0.210   1.751   1.399
17108SOL     OW53330   2.433  10.757   6.893
17108SOL    HW153331   2.341  10.732   6.905
17108SOL    HW253332   2.480  10.674   6.891
17109SOL     OW53333   3.057   2.509   4.431
17109SOL    HW153334   3.144   2.475   4.451
17109SOL    HW253335   3.008   2.432   4.403
17110SOL     OW53336  11.004   0.913   7.455
17110SOL    HW153337  10.942   0.975   7.493
17110SOL    HW253338  11.001   0.837   7.513
17111SOL     OW53339   5.012   7.746   2.909
17111SOL    HW153340   5.077   7.816   2.914
17111SOL    HW253341   5.063   7.665   2.919
17112SOL     OW53342   6.035   3.223   6.612
17112SOL    HW153343   6.106   3.286   6.600
17112SOL    HW253344   5.969   3.270   6.662
17113SOL     OW53345   5.514   3.153  10.975
17113SOL    HW153346   5.609   3.162  10.962
17113SOL    HW253347   5.476   3.229  10.931
17114SOL     OW53348   3.360   7.361   0.597
17114SOL    HW153349   3.432   7.351   0.534
17114SOL    HW253350   3.298   7.419   0.553
17115SOL     OW53351   5.311   1.961   3.529
17115SOL    HW153352   5.395   1.955   3.574
17115SOL    HW253353   5.279   1.870   3.527
17116SOL     OW53354   1.044   8.177   7.952
17116SOL    HW153355   0.975   8.175   7.886
17116SOL    HW253356   0.998   8.167   8.035
17117SOL     OW53357   1.954   0.013   5.661
17117SOL    HW153358   1.985  -0.001   5.571
17117SOL    HW253359   1.988   0.099   5.685
17118SOL     OW53360   3.988   7.065  10.996
17118SOL    HW153361   4.068   7.011  10.995
17118SOL    HW253362   4.006   7.135  10.933
17119SOL     OW53363   2.525   3.543   3.626
17119SOL    HW153364   2.583   3.475   3.661
17119SOL    HW253365   2.584   3.601   3.578
17120SOL     OW53366   7.656   4.875   6.205
17120SOL    HW153367   7.650   4.793   6.155
17120SOL    HW253368   7.575   4.922   6.184
17121SOL     OW53369   8.268   4.712   7.329
17121SOL    HW153370   8.215   4.790   7.312
17121SOL    HW253371   8.334   4.741   7.392
17122SOL     OW53372   6.065   0.949   2.358
17122SOL    HW153373   6.083   1.002   2.280
17122SOL    HW253374   5.990   0.992   2.399
17123SOL     OW53375  10.710   1.423  10.334
17123SOL    HW153376  10.719   1.517  10.324
17123SOL    HW253377  10.617   1.409  10.352
17124SOL     OW53378   7.995   0.058   2.741
17124SOL    HW153379   7.964   0.080   2.828
17124SOL    HW253380   7.959   0.126   2.685
17125SOL     OW53381   8.942   3.120   3.245
17125SOL    HW153382   8.983   3.205   3.258
17125SOL    HW253383   8.900   3.126   3.159
17126SOL     OW53384   8.597   3.484  10.927
17126SOL    HW153385   8.647   3.456  10.850
17126SOL    HW253386   8.659   3.478  11.000
17127SOL     OW53387  10.812   4.530   3.115
17127SOL    HW153388  10.827   4.586   3.039
17127SOL    HW253389  10.816   4.441   3.080
17128SOL     OW53390   6.710   1.994   2.390
17128SOL    HW153391   6.798   2.000   2.428
17128SOL    HW253392   6.664   1.931   2.446
17129SOL     OW53393   1.545   1.075   9.487
17129SOL    HW153394   1.591   1.052   9.406
17129SOL    HW253395   1.608   1.055   9.556
17130SOL     OW53396   4.727   4.320  10.100
17130SOL    HW153397   4.744   4.269  10.020
17130SOL    HW253398   4.791   4.391  10.097
17131SOL     OW53399   7.448   4.724   3.302
17131SOL    HW153400   7.468   4.817   3.298
17131SOL    HW253401   7.506   4.684   3.237
17132SOL     OW53402   2.639   3.366   7.039
17132SOL    HW153403   2.564   3.419   7.011
17132SOL    HW253404   2.641   3.376   7.134
17133SOL     OW53405  10.874   2.027   4.450
17133SOL    HW153406  10.845   1.943   4.486
17133SOL    HW253407  10.793   2.075   4.433
17134SOL     OW53408  10.243   0.264   3.655
17134SOL    HW153409  10.269   0.224   3.738
17134SOL    HW253410  10.320   0.253   3.598
17135SOL     OW53411   4.901   8.107  10.903
17135SOL    HW153412   4.815   8.090  10.864
17135SOL    HW253413   4.885   8.178  10.964
17136SOL     OW53414   5.128   4.825   5.427
17136SOL    HW153415   5.105   4.918   5.427
17136SOL    HW253416   5.203   4.819   5.486
17137SOL     OW53417   5.245   2.148  10.949
17137SOL    HW153418   5.174   2.212  10.945
17137SOL    HW253419   5.291   2.158  10.865
17138SOL     OW53420   6.940   3.908   7.866
17138SOL    HW153421   6.888   3.952   7.799
17138SOL    HW253422   6.903   3.820   7.870
17139SOL     OW53423   2.968   5.647   4.198
17139SOL    HW153424   2.947   5.665   4.106
17139SOL    HW253425   2.984   5.733   4.236
17140SOL     OW53426   8.656   3.210   0.865
17140SOL    HW153427   8.610   3.255   0.936
17140SOL    HW253428   8.587   3.189   0.802
17141SOL     OW53429   5.871  11.025   9.956
17141SOL    HW153430   5.917  11.094  10.003
17141SOL    HW253431   5.803  10.996  10.016
17142SOL     OW53432   7.329   0.597   1.413
17142SOL    HW153433   7.253   0.653   1.399
17142SOL    HW253434   7.299   0.509   1.389
17143SOL     OW53435   4.165  10.122   3.897
17143SOL    HW153436   4.249  10.077   3.907
17143SOL    HW253437   4.174  10.170   3.815
17144SOL     OW53438   8.761   5.327   9.044
17144SOL    HW153439   8.818   5.310   8.969
17144SOL    HW253440   8.698   5.392   9.012
17145SOL     OW53441   9.873   7.712   2.235
17145SOL    HW153442   9.915   7.797   2.225
17145SOL    HW253443   9.779   7.731   2.236
17146SOL     OW53444   8.582   0.145   2.891
17146SOL    HW153445   8.573   0.099   2.974
17146SOL    HW253446   8.572   0.076   2.825
17147SOL     OW53447   7.284   8.435   6.094
17147SOL    HW153448   7.330   8.512   6.126
17147SOL    HW253449   7.193   8.462   6.087
17148SOL     OW53450   0.313   9.420   9.856
17148SOL    HW153451   0.328   9.365   9.933
17148SOL    HW253452   0.280   9.503   9.891
17149SOL     OW53453   4.392  11.057   8.333
17149SOL    HW153454   4.475  11.100   8.355
17149SOL    HW253455   4.334  11.078   8.406
17150SOL     OW53456   0.323   7.571   8.483
17150SOL    HW153457   0.294   7.655   8.448
17150SOL    HW253458   0.256   7.509   8.452
17151SOL     OW53459   6.854  10.217   3.012
17151SOL    HW153460   6.856  10.126   2.983
17151SOL    HW253461   6.781  10.221   3.073
17152SOL     OW53462   3.409   1.542   7.021
17152SOL    HW153463   3.412   1.542   7.116
17152SOL    HW253464   3.498   1.566   6.994
17153SOL     OW53465   1.629   2.212   7.981
17153SOL    HW153466   1.680   2.286   8.013
17153SOL    HW253467   1.691   2.139   7.980
17154SOL     OW53468   0.049   4.203   9.516
17154SOL    HW153469   0.017   4.113   9.510
17154SOL    HW253470  -0.029   4.254   9.538
17155SOL     OW53471   0.648   7.949   9.863
17155SOL    HW153472   0.626   7.926   9.953
17155SOL    HW253473   0.738   7.982   9.868
17156SOL     OW53474   2.457   0.726  10.528
17156SOL    HW153475   2.552   0.727  10.516
17156SOL    HW253476   2.438   0.638  10.562
17157SOL     OW53477   8.066   3.907   6.844
17157SOL    HW153478   8.153   3.904   6.805
17157SOL    HW253479   8.018   3.836   6.801
17158SOL     OW53480  10.251   7.474   1.807
17158SOL    HW153481  10.252   7.406   1.874
17158SOL    HW253482  10.158   7.490   1.791
17159SOL     OW53483   5.460   4.580   4.905
17159SOL    HW153484   5.458   4.487   4.881
17159SOL    HW253485   5.535   4.587   4.964
17160SOL     OW53486   2.398   9.834   9.702
17160SOL    HW153487   2.321   9.891   9.698
17160SOL    HW253488   2.471   9.893   9.718
17161SOL     OW53489   5.590  10.629   2.452
17161SOL    HW153490   5.623  10.541   2.467
17161SOL    HW253491   5.522  10.641   2.517
17162SOL     OW53492   7.075   2.398   7.216
17162SOL    HW153493   7.145   2.443   7.169
17162SOL    HW253494   7.116   2.319   7.251
17163SOL     OW53495   0.693   9.874   8.562
17163SOL    HW153496   0.771   9.857   8.509
17163SOL    HW253497   0.713   9.955   8.608
17164SOL     OW53498  10.792   0.412   9.834
17164SOL    HW153499  10.800   0.346   9.765
17164SOL    HW253500  10.735   0.371   9.899
17165SOL     OW53501   1.489   0.612   1.924
17165SOL    HW153502   1.532   0.590   1.841
17165SOL    HW253503   1.495   0.707   1.930
17166SOL     OW53504   7.182   7.117   1.268
17166SOL    HW153505   7.275   7.096   1.281
17166SOL    HW253506   7.169   7.108   1.173
17167SOL     OW53507   5.092   4.638   3.459
17167SOL    HW153508   5.111   4.712   3.401
17167SOL    HW253509   4.997   4.634   3.462
17168SOL     OW53510   6.023   2.975   1.053
17168SOL    HW153511   6.118   2.978   1.038
17168SOL    HW253512   5.994   2.894   1.010
17169SOL     OW53513   3.344   2.949   8.224
17169SOL    HW153514   3.371   2.858   8.212
17169SOL    HW253515   3.339   2.984   8.135
17170SOL     OW53516   3.177   6.259   6.663
17170SOL    HW153517   3.202   6.229   6.750
17170SOL    HW253518   3.101   6.315   6.677
17171SOL     OW53519   7.187   1.438   1.648
17171SOL    HW153520   7.113   1.499   1.643
17171SOL    HW253521   7.149   1.352   1.627
17172SOL     OW53522   3.505   9.247   1.597
17172SOL    HW153523   3.509   9.308   1.523
17172SOL    HW253524   3.432   9.188   1.576
17173SOL     OW53525   3.218   7.274   2.503
17173SOL    HW153526   3.279   7.347   2.508
17173SOL    HW253527   3.170   7.288   2.421
17174SOL     OW53528   9.947   7.937   8.245
17174SOL    HW153529  10.010   7.874   8.209
17174SOL    HW253530   9.985   7.965   8.328
17175SOL     OW53531   6.196   9.013  10.001
17175SOL    HW153532   6.260   8.945  10.023
17175SOL    HW253533   6.248   9.093   9.995
17176SOL     OW53534   6.570   2.299   6.957
17176SOL    HW153535   6.508   2.315   7.028
17176SOL    HW253536   6.527   2.333   6.879
17177SOL     OW53537   4.693  10.333   6.795
17177SOL    HW153538   4.677  10.304   6.884
17177SOL    HW253539   4.783  10.367   6.796
17178SOL     OW53540   5.997   4.580   3.688
17178SOL    HW153541   5.991   4.489   3.657
17178SOL    HW253542   6.089   4.590   3.714
17179SOL     OW53543   2.862   7.526  10.168
17179SOL    HW153544   2.919   7.594  10.203
17179SOL    HW253545   2.786   7.526  10.226
17180SOL     OW53546   4.940   8.913   9.467
17180SOL    HW153547   4.908   8.859   9.539
17180SOL    HW253548   4.972   8.850   9.402
17181SOL     OW53549   0.905   7.257   9.535
17181SOL    HW153550   0.954   7.335   9.510
17181SOL    HW253551   0.820   7.290   9.564
17182SOL     OW53552   9.621   9.657   8.133
17182SOL    HW153553   9.584   9.670   8.046
17182SOL    HW253554   9.608   9.740   8.178
17183SOL     OW53555  10.480  10.802   8.407
17183SOL    HW153556  10.455  10.785   8.316
17183SOL    HW253557  10.574  10.820   8.403
17184SOL     OW53558   9.776   7.689   0.864
17184SOL    HW153559   9.811   7.774   0.889
17184SOL    HW253560   9.719   7.663   0.936
17185SOL     OW53561   4.490  10.797   1.883
17185SOL    HW153562   4.558  10.746   1.839
17185SOL    HW253563   4.415  10.738   1.889
17186SOL     OW53564   2.730   5.453   1.828
17186SOL    HW153565   2.813   5.451   1.875
17186SOL    HW253566   2.667   5.413   1.888
17187SOL     OW53567   7.286   3.828   7.387
17187SOL    HW153568   7.233   3.876   7.450
17187SOL    HW253569   7.360   3.795   7.438
17188SOL     OW53570  10.979   0.364   6.431
17188SOL    HW153571  10.947   0.454   6.429
17188SOL    HW253572  11.052   0.365   6.493
17189SOL     OW53573   3.725   1.968   3.604
17189SOL    HW153574   3.703   1.891   3.656
17189SOL    HW253575   3.742   2.036   3.668
17190SOL     OW53576   8.142   7.743   6.411
17190SOL    HW153577   8.054   7.731   6.446
17190SOL    HW253578   8.197   7.760   6.487
17191SOL     OW53579   9.408   3.743   5.849
17191SOL    HW153580   9.493   3.726   5.807
17191SOL    HW253581   9.390   3.663   5.898
17192SOL     OW53582   8.863   9.123   1.266
17192SOL    HW153583   8.802   9.147   1.196
17192SOL    HW253584   8.807   9.105   1.342
17193SOL     OW53585   6.185   9.013  10.658
17193SOL    HW153586   6.204   9.098  10.619
17193SOL    HW253587   6.175   8.954  10.583
17194SOL     OW53588   8.127  10.891   5.395
17194SOL    HW153589   8.062  10.953   5.362
17194SOL    HW253590   8.097  10.806   5.364
17195SOL     OW53591   0.721   3.707   6.866
17195SOL    HW153592   0.798   3.763   6.856
17195SOL    HW253593   0.720   3.653   6.787
17196SOL     OW53594   4.361   1.507   1.104
17196SOL    HW153595   4.299   1.487   1.034
17196SOL    HW253596   4.447   1.497   1.063
17197SOL     OW53597   7.610   6.256   5.739
17197SOL    HW153598   7.550   6.196   5.784
17197SOL    HW253599   7.558   6.335   5.723
17198SOL     OW53600   7.367  10.789   3.654
17198SOL    HW153601   7.359  10.697   3.630
17198SOL    HW253602   7.326  10.836   3.581
17199SOL     OW53603   5.646   1.799   1.484
17199SOL    HW153604   5.560   1.805   1.526
17199SOL    HW253605   5.708   1.788   1.556
17200SOL     OW53606   7.646   0.218   3.288
17200SOL    HW153607   7.695   0.298   3.304
17200SOL    HW253608   7.554   0.245   3.292
17201SOL     OW53609  11.025   8.748   2.243
17201SOL    HW153610  11.082   8.703   2.305
17201SOL    HW253611  11.069   8.736   2.158
17202SOL     OW53612   9.163   7.480   0.059
17202SOL    HW153613   9.110   7.451   0.134
17202SOL    HW253614   9.185   7.571   0.079
17203SOL     OW53615   5.101   9.010   8.512
17203SOL    HW153616   5.080   9.088   8.563
17203SOL    HW253617   5.046   8.941   8.549
17204SOL     OW53618   1.705   3.216   4.869
17204SOL    HW153619   1.664   3.176   4.945
17204SOL    HW253620   1.799   3.210   4.886
17205SOL     OW53621   6.301   7.848  10.796
17205SOL    HW153622   6.217   7.893  10.795
17205SOL    HW253623   6.278   7.755  10.806
17206SOL     OW53624   5.352   2.627   8.510
17206SOL    HW153625   5.401   2.556   8.468
17206SOL    HW253626   5.271   2.632   8.459
17207SOL     OW53627   2.627   7.437   0.849
17207SOL    HW153628   2.586   7.350   0.845
17207SOL    HW253629   2.572   7.487   0.909
17208SOL     OW53630  10.530   0.394   3.038
17208SOL    HW153631  10.519   0.299   3.035
17208SOL    HW253632  10.525   0.421   2.946
17209SOL     OW53633   3.471   7.085  10.576
17209SOL    HW153634   3.481   7.160  10.634
17209SOL    HW253635   3.462   7.010  10.634
17210SOL     OW53636   8.117   3.949   0.206
17210SOL    HW153637   8.175   3.931   0.280
17210SOL    HW253638   8.103   3.863   0.165
17211SOL     OW53639   4.230  10.138   0.911
17211SOL    HW153640   4.214  10.072   0.978
17211SOL    HW253641   4.304  10.103   0.861
17212SOL     OW53642   4.104   0.159   1.573
17212SOL    HW153643   4.009   0.149   1.565
17212SOL    HW253644   4.125   0.234   1.517
17213SOL     OW53645   4.576   8.930   3.259
17213SOL    HW153646   4.630   8.956   3.334
17213SOL    HW253647   4.500   8.988   3.262
17214SOL     OW53648   5.578   5.458   0.967
17214SOL    HW153649   5.673   5.446   0.961
17214SOL    HW253650   5.567   5.551   0.985
17215SOL     OW53651   4.671   1.220   9.803
17215SOL    HW153652   4.641   1.155   9.867
17215SOL    HW253653   4.610   1.293   9.812
17216SOL     OW53654   8.628   3.116   2.774
17216SOL    HW153655   8.593   3.199   2.806
17216SOL    HW253656   8.635   3.061   2.852
17217SOL     OW53657   3.432   1.040  10.669
17217SOL    HW153658   3.450   1.069  10.579
17217SOL    HW253659   3.518   1.035  10.710
17218SOL     OW53660   4.012   6.700   8.571
17218SOL    HW153661   4.002   6.660   8.484
17218SOL    HW253662   3.923   6.719   8.599
17219SOL     OW53663   6.236   3.247   5.801
17219SOL    HW153664   6.241   3.325   5.746
17219SOL    HW253665   6.249   3.174   5.739
17220SOL     OW53666   6.310   3.249   1.741
17220SOL    HW153667   6.345   3.325   1.695
17220SOL    HW253668   6.271   3.285   1.820
17221SOL     OW53669   3.654  10.874   9.861
17221SOL    HW153670   3.651  10.928   9.782
17221SOL    HW253671   3.640  10.785   9.829
17222SOL     OW53672   2.578   6.314   3.387
17222SOL    HW153673   2.668   6.340   3.366
17222SOL    HW253674   2.524   6.387   3.359
17223SOL     OW53675   2.671   3.925   4.546
17223SOL    HW153676   2.593   3.878   4.575
17223SOL    HW253677   2.706   3.871   4.475
17224SOL     OW53678   0.578   1.288  10.005
17224SOL    HW153679   0.608   1.300   9.915
17224SOL    HW253680   0.509   1.222   9.998
17225SOL     OW53681   5.074   7.665   0.809
17225SOL    HW153682   5.156   7.647   0.762
17225SOL    HW253683   5.100   7.721   0.882
17226SOL     OW53684   3.638   7.192   9.275
17226SOL    HW153685   3.698   7.139   9.223
17226SOL    HW253686   3.695   7.239   9.335
17227SOL     OW53687   1.780   5.470   6.055
17227SOL    HW153688   1.711   5.534   6.068
17227SOL    HW253689   1.778   5.451   5.961
17228SOL     OW53690   0.547   0.215   8.115
17228SOL    HW153691   0.475   0.234   8.175
17228SOL    HW253692   0.616   0.179   8.170
17229SOL     OW53693   8.646  10.300   3.706
17229SOL    HW153694   8.552  10.308   3.688
17229SOL    HW253695   8.652  10.227   3.768
17230SOL     OW53696   5.021   6.036   4.737
17230SOL    HW153697   4.942   6.023   4.788
17230SOL    HW253698   5.091   6.001   4.792
17231SOL     OW53699   5.263  10.351   9.095
17231SOL    HW153700   5.208  10.273   9.084
17231SOL    HW253701   5.209  10.412   9.145
17232SOL     OW53702   6.650   4.792   8.020
17232SOL    HW153703   6.722   4.734   7.995
17232SOL    HW253704   6.571   4.742   7.999
17233SOL     OW53705   5.752   4.130  10.457
17233SOL    HW153706   5.808   4.055  10.477
17233SOL    HW253707   5.697   4.100  10.384
17234SOL     OW53708   5.290  10.382   6.676
17234SOL    HW153709   5.363  10.328   6.647
17234SOL    HW253710   5.301  10.464   6.629
17235SOL     OW53711   7.326   5.076   7.021
17235SOL    HW153712   7.365   5.108   7.102
17235SOL    HW253713   7.401   5.051   6.967
17236SOL     OW53714  10.381   7.416   2.528
17236SOL    HW153715  10.330   7.493   2.504
17236SOL    HW253716  10.379   7.414   2.623
17237SOL     OW53717   3.828   2.307  10.243
17237SOL    HW153718   3.865   2.233  10.195
17237SOL    HW253719   3.742   2.320  10.204
17238SOL     OW53720   6.594   7.153   3.996
17238SOL    HW153721   6.597   7.060   3.970
17238SOL    HW253722   6.550   7.196   3.923
17239SOL     OW53723   2.576  10.857   6.283
17239SOL    HW153724   2.575  10.953   6.287
17239SOL    HW253725   2.610  10.830   6.368
17240SOL     OW53726   1.922   2.034   4.666
17240SOL    HW153727   1.856   2.003   4.728
17240SOL    HW253728   2.006   2.011   4.706
17241SOL     OW53729   0.115  10.642  10.637
17241SOL    HW153730   0.111  10.738  10.641
17241SOL    HW253731   0.208  10.622  10.636
17242SOL     OW53732   0.116   3.381   5.574
17242SOL    HW153733   0.149   3.330   5.648
17242SOL    HW253734   0.049   3.438   5.611
17243SOL     OW53735   6.393   8.847   4.642
17243SOL    HW153736   6.330   8.919   4.639
17243SOL    HW253737   6.344   8.771   4.611
17244SOL     OW53738   4.795   3.924  10.368
17244SOL    HW153739   4.745   3.897  10.445
17244SOL    HW253740   4.760   3.870  10.297
17245SOL     OW53741   4.826   7.989   2.714
17245SOL    HW153742   4.809   7.978   2.807
17245SOL    HW253743   4.921   7.981   2.705
17246SOL     OW53744   5.031   9.354   2.388
17246SOL    HW153745   5.062   9.267   2.362
17246SOL    HW253746   5.089   9.415   2.341
17247SOL     OW53747   4.339   1.209   9.990
17247SOL    HW153748   4.314   1.117   9.984
17247SOL    HW253749   4.285   1.244  10.061
17248SOL     OW53750   9.575   7.396  10.932
17248SOL    HW153751   9.533   7.355  11.007
17248SOL    HW253752   9.506   7.446  10.889
17249SOL     OW53753   4.542   2.394   4.734
17249SOL    HW153754   4.504   2.306   4.744
17249SOL    HW253755   4.476   2.443   4.685
17250SOL     OW53756   6.169   4.798  10.529
17250SOL    HW153757   6.182   4.870  10.467
17250SOL    HW253758   6.200   4.720  10.482
17251SOL     OW53759   6.628   1.544   4.513
17251SOL    HW153760   6.675   1.461   4.526
17251SOL    HW253761   6.694   1.605   4.481
17252SOL     OW53762   7.690   0.584   9.799
17252SOL    HW153763   7.746   0.585   9.876
17252SOL    HW253764   7.604   0.612   9.831
17253SOL     OW53765   2.684   1.862   0.697
17253SOL    HW153766   2.757   1.923   0.706
17253SOL    HW253767   2.716   1.795   0.636
17254SOL     OW53768   3.330   4.296   9.268
17254SOL    HW153769   3.402   4.237   9.245
17254SOL    HW253770   3.285   4.311   9.185
17255SOL     OW53771   6.901   2.430   8.690
17255SOL    HW153772   6.923   2.515   8.652
17255SOL    HW253773   6.944   2.366   8.633
17256SOL     OW53774   6.087  10.221   9.702
17256SOL    HW153775   6.102  10.187   9.613
17256SOL    HW253776   6.145  10.168   9.757
17257SOL     OW53777   6.305   9.621   6.662
17257SOL    HW153778   6.219   9.649   6.693
17257SOL    HW253779   6.300   9.525   6.661
17258SOL     OW53780   5.288   0.980   2.057
17258SOL    HW153781   5.339   1.016   1.984
17258SOL    HW253782   5.285   1.050   2.122
17259SOL     OW53783   3.626  10.254   9.624
17259SOL    HW153784   3.702  10.200   9.648
17259SOL    HW253785   3.591  10.285   9.707
17260SOL     OW53786   7.757   0.608   0.190
17260SOL    HW153787   7.717   0.560   0.118
17260SOL    HW253788   7.683   0.638   0.243
17261SOL     OW53789   2.172   3.305   1.121
17261SOL    HW153790   2.098   3.249   1.098
17261SOL    HW253791   2.132   3.384   1.156
17262SOL     OW53792   3.564   1.492   8.344
17262SOL    HW153793   3.643   1.455   8.303
17262SOL    HW253794   3.597   1.553   8.410
17263SOL     OW53795   3.552   2.128  11.088
17263SOL    HW153796   3.479   2.074  11.118
17263SOL    HW253797   3.540   2.133  10.993
17264SOL     OW53798   8.460   1.184   2.066
17264SOL    HW153799   8.376   1.153   2.032
17264SOL    HW253800   8.446   1.196   2.160
17265SOL     OW53801   8.014   1.720   5.302
17265SOL    HW153802   8.085   1.661   5.277
17265SOL    HW253803   7.953   1.717   5.228
17266SOL     OW53804   7.808   7.424   9.278
17266SOL    HW153805   7.739   7.481   9.310
17266SOL    HW253806   7.780   7.399   9.189
17267SOL     OW53807   2.612   3.038   1.611
17267SOL    HW153808   2.657   3.122   1.616
17267SOL    HW253809   2.543   3.051   1.546
17268SOL     OW53810   4.205   4.402   1.110
17268SOL    HW153811   4.256   4.352   1.174
17268SOL    HW253812   4.128   4.348   1.093
17269SOL     OW53813   3.385   2.676  10.043
17269SOL    HW153814   3.444   2.742  10.006
17269SOL    HW253815   3.297   2.705  10.018
17270SOL     OW53816   4.889   5.559  10.024
17270SOL    HW153817   4.892   5.643   9.978
17270SOL    HW253818   4.805   5.559  10.069
17271SOL     OW53819   4.059   2.448   0.915
17271SOL    HW153820   4.103   2.372   0.876
17271SOL    HW253821   3.992   2.472   0.851
17272SOL     OW53822   3.185   8.522  10.820
17272SOL    HW153823   3.229   8.437  10.812
17272SOL    HW253824   3.235   8.580  10.763
17273SOL     OW53825   6.675   3.401   1.045
17273SOL    HW153826   6.603   3.349   1.080
17273SOL    HW253827   6.649   3.420   0.955
17274SOL     OW53828   0.528   3.974  10.097
17274SOL    HW153829   0.482   3.945  10.176
17274SOL    HW253830   0.493   3.918  10.027
17275SOL     OW53831   3.864   8.925   5.541
17275SOL    HW153832   3.805   9.000   5.545
17275SOL    HW253833   3.931   8.943   5.607
17276SOL     OW53834   3.989  10.368  10.981
17276SOL    HW153835   4.083  10.355  10.964
17276SOL    HW253836   3.986  10.425  11.058
17277SOL     OW53837   9.291   7.461   0.373
17277SOL    HW153838   9.286   7.369   0.400
17277SOL    HW253839   9.346   7.460   0.294
17278SOL     OW53840   6.070   3.860   9.232
17278SOL    HW153841   6.144   3.862   9.292
17278SOL    HW253842   5.994   3.883   9.285
17279SOL     OW53843   6.918   1.865   4.797
17279SOL    HW153844   6.864   1.868   4.718
17279SOL    HW253845   6.856   1.857   4.869
17280SOL     OW53846   2.798   7.759   2.837
17280SOL    HW153847   2.761   7.740   2.751
17280SOL    HW253848   2.889   7.782   2.819
17281SOL     OW53849   5.472   0.525   0.054
17281SOL    HW153850   5.451   0.454   0.116
17281SOL    HW253851   5.476   0.603   0.109
17282SOL     OW53852   1.170   3.926   4.211
17282SOL    HW153853   1.262   3.902   4.225
17282SOL    HW253854   1.124   3.842   4.206
17283SOL     OW53855   1.981   5.199   1.496
17283SOL    HW153856   2.046   5.202   1.566
17283SOL    HW253857   2.027   5.159   1.422
17284SOL     OW53858   6.420  10.788   1.780
17284SOL    HW153859   6.329  10.795   1.808
17284SOL    HW253860   6.420  10.717   1.715
17285SOL     OW53861   6.895   5.539   3.926
17285SOL    HW153862   6.845   5.599   3.981
17285SOL    HW253863   6.963   5.504   3.984
17286SOL     OW53864   3.927   3.099   5.047
17286SOL    HW153865   3.942   3.182   5.091
17286SOL    HW253866   3.834   3.080   5.060
17287SOL     OW53867   6.282   0.646   8.063
17287SOL    HW153868   6.227   0.568   8.050
17287SOL    HW253869   6.221   0.719   8.063
17288SOL     OW53870   2.601   7.707  10.712
17288SOL    HW153871   2.531   7.663  10.663
17288SOL    HW253872   2.646   7.760  10.646
17289SOL     OW53873   8.126   5.256   4.272
17289SOL    HW153874   8.083   5.230   4.353
17289SOL    HW253875   8.118   5.351   4.270
17290SOL     OW53876   7.417   2.442   8.146
17290SOL    HW153877   7.331   2.414   8.114
17290SOL    HW253878   7.464   2.360   8.163
17291SOL     OW53879   7.093   4.558   8.409
17291SOL    HW153880   7.042   4.610   8.470
17291SOL    HW253881   7.184   4.577   8.431
17292SOL     OW53882   3.795   0.170   2.330
17292SOL    HW153883   3.868   0.192   2.272
17292SOL    HW253884   3.747   0.252   2.341
17293SOL     OW53885   9.167   1.868   9.225
17293SOL    HW153886   9.235   1.926   9.190
17293SOL    HW253887   9.119   1.838   9.147
17294SOL     OW53888   1.240   0.682   0.953
17294SOL    HW153889   1.148   0.673   0.978
17294SOL    HW253890   1.260   0.774   0.969
17295SOL     OW53891   2.285   0.654   7.026
17295SOL    HW153892   2.312   0.581   7.082
17295SOL    HW253893   2.362   0.673   6.972
17296SOL     OW53894   8.903   3.032   4.771
17296SOL    HW153895   8.820   3.045   4.817
17296SOL    HW253896   8.904   3.099   4.703
17297SOL     OW53897   1.399   0.236   6.929
17297SOL    HW153898   1.350   0.309   6.892
17297SOL    HW253899   1.392   0.247   7.023
17298SOL     OW53900   2.407   1.788   4.159
17298SOL    HW153901   2.463   1.719   4.195
17298SOL    HW253902   2.361   1.824   4.234
17299SOL     OW53903   4.176   9.650   9.971
17299SOL    HW153904   4.138   9.582   9.914
17299SOL    HW253905   4.160   9.732   9.924
17300SOL     OW53906   8.906   4.329   8.470
17300SOL    HW153907   8.892   4.334   8.564
17300SOL    HW253908   8.925   4.419   8.443
17301SOL     OW53909   1.573   6.271   3.773
17301SOL    HW153910   1.526   6.339   3.725
17301SOL    HW253911   1.622   6.224   3.705
17302SOL     OW53912   2.556   2.836   8.526
17302SOL    HW153913   2.577   2.927   8.506
17302SOL    HW253914   2.475   2.819   8.478
17303SOL     OW53915   5.010  10.533   9.059
17303SOL    HW153916   4.964  10.502   9.137
17303SOL    HW253917   5.004  10.628   9.063
17304SOL     OW53918   5.476  10.197   2.272
17304SOL    HW153919   5.427  10.123   2.308
17304SOL    HW253920   5.537  10.222   2.341
17305SOL     OW53921   0.764  10.146   4.148
17305SOL    HW153922   0.859  10.158   4.141
17305SOL    HW253923   0.735  10.138   4.057
17306SOL     OW53924   9.366   3.911   1.706
17306SOL    HW153925   9.408   3.983   1.752
17306SOL    HW253926   9.439   3.859   1.672
17307SOL     OW53927   5.173   0.050   6.401
17307SOL    HW153928   5.113   0.031   6.472
17307SOL    HW253929   5.246  -0.010   6.415
17308SOL     OW53930   8.455   7.934  10.420
17308SOL    HW153931   8.429   8.022  10.394
17308SOL    HW253932   8.436   7.880  10.343
17309SOL     OW53933   0.106   6.060   9.815
17309SOL    HW153934   0.038   6.118   9.781
17309SOL    HW253935   0.182   6.076   9.759
17310SOL     OW53936   5.560   2.064   2.289
17310SOL    HW153937   5.474   2.045   2.327
17310SOL    HW253938   5.618   2.076   2.364
17311SOL     OW53939   8.136   1.179   0.215
17311SOL    HW153940   8.131   1.223   0.300
17311SOL    HW253941   8.046   1.175   0.184
17312SOL     OW53942   8.621   8.189   8.616
17312SOL    HW153943   8.599   8.100   8.643
17312SOL    HW253944   8.586   8.244   8.685
17313SOL     OW53945   6.463   0.961   2.607
17313SOL    HW153946   6.471   0.955   2.702
17313SOL    HW253947   6.390   0.903   2.585
17314SOL     OW53948   3.217   6.325   7.792
17314SOL    HW153949   3.273   6.402   7.784
17314SOL    HW253950   3.257   6.273   7.862
17315SOL     OW53951   7.063   0.615   8.796
17315SOL    HW153952   7.040   0.532   8.837
17315SOL    HW253953   6.987   0.636   8.741
17316SOL     OW53954   1.504   5.361   4.039
17316SOL    HW153955   1.480   5.426   3.974
17316SOL    HW253956   1.474   5.278   4.001
17317SOL     OW53957   8.771   2.108   0.220
17317SOL    HW153958   8.798   2.091   0.310
17317SOL    HW253959   8.732   2.025   0.191
17318SOL     OW53960   4.062   7.768   1.758
17318SOL    HW153961   3.970   7.744   1.750
17318SOL    HW253962   4.078   7.774   1.852
17319SOL     OW53963   9.002   4.115   2.629
17319SOL    HW153964   9.012   4.034   2.577
17319SOL    HW253965   8.918   4.104   2.674
17320SOL     OW53966   1.517   2.726   8.795
17320SOL    HW153967   1.604   2.744   8.759
17320SOL    HW253968   1.517   2.631   8.810
17321SOL     OW53969   2.736   8.331   3.043
17321SOL    HW153970   2.727   8.247   2.997
17321SOL    HW253971   2.719   8.396   2.975
17322SOL     OW53972   3.763   6.873   0.334
17322SOL    HW153973   3.739   6.824   0.255
17322SOL    HW253974   3.772   6.806   0.402
17323SOL     OW53975   0.416   3.859   9.871
17323SOL    HW153976   0.413   3.794   9.800
17323SOL    HW253977   0.483   3.921   9.843
17324SOL     OW53978  10.194   7.356   4.861
17324SOL    HW153979  10.246   7.432   4.834
17324SOL    HW253980  10.177   7.309   4.779
17325SOL     OW53981   0.848   6.425   3.631
17325SOL    HW153982   0.777   6.372   3.667
17325SOL    HW253983   0.829   6.430   3.537
17326SOL     OW53984   8.102   5.361   0.954
17326SOL    HW153985   8.178   5.408   0.919
17326SOL    HW253986   8.069   5.417   1.024
17327SOL     OW53987  10.789  10.759   7.879
17327SOL    HW153988  10.871  10.710   7.874
17327SOL    HW253989  10.792  10.818   7.804
17328SOL     OW53990   3.066   1.275   3.805
17328SOL    HW153991   3.103   1.262   3.717
17328SOL    HW253992   3.053   1.186   3.839
17329SOL     OW53993  10.721   5.029   4.966
17329SOL    HW153994  10.800   5.059   5.011
17329SOL    HW253995  10.676   5.109   4.940
17330SOL     OW53996   5.282  10.857   7.006
17330SOL    HW153997   5.336  10.835   7.082
17330SOL    HW253998   5.332  10.925   6.960
17331SOL     OW53999   3.831   4.719   0.527
17331SOL    HW154000   3.912   4.721   0.476
17331SOL    HW254001   3.857   4.744   0.615
17332SOL     OW54002   6.908   2.810   0.239
17332SOL    HW154003   6.906   2.817   0.143
17332SOL    HW254004   7.001   2.799   0.260
17333SOL     OW54005   4.259   2.750   1.226
17333SOL    HW154006   4.184   2.736   1.168
17333SOL    HW254007   4.265   2.845   1.235
17334SOL     OW54008   1.820   3.257   8.791
17334SOL    HW154009   1.739   3.221   8.756
17334SOL    HW254010   1.875   3.271   8.714
17335SOL     OW54011   6.316   3.652   3.612
17335SOL    HW154012   6.388   3.707   3.643
17335SOL    HW254013   6.237   3.704   3.626
17336SOL     OW54014   0.640   2.536  10.959
17336SOL    HW154015   0.566   2.543  11.019
17336SOL    HW254016   0.614   2.586  10.882
17337SOL     OW54017   9.696   7.905  10.543
17337SOL    HW154018   9.701   7.931  10.451
17337SOL    HW254019   9.779   7.935  10.581
17338SOL     OW54020   1.548  10.117   9.798
17338SOL    HW154021   1.513  10.203   9.819
17338SOL    HW254022   1.481  10.055   9.828
17339SOL     OW54023   2.681   6.636   4.624
17339SOL    HW154024   2.623   6.709   4.643
17339SOL    HW254025   2.769   6.673   4.628
17340SOL     OW54026   7.966   1.144   6.874
17340SOL    HW154027   7.991   1.117   6.785
17340SOL    HW254028   8.025   1.216   6.894
17341SOL     OW54029   1.761   7.806   5.581
17341SOL    HW154030   1.815   7.747   5.527
17341SOL    HW254031   1.679   7.813   5.533
17342SOL     OW54032   7.769   0.712  10.844
17342SOL    HW154033   7.741   0.626  10.811
17342SOL    HW254034   7.815   0.692  10.925
17343SOL     OW54035   9.618   9.819   2.166
17343SOL    HW154036   9.617   9.840   2.072
17343SOL    HW254037   9.708   9.791   2.183
17344SOL     OW54038   9.199   2.550   2.367
17344SOL    HW154039   9.188   2.495   2.444
17344SOL    HW254040   9.272   2.510   2.320
17345SOL     OW54041   3.699   3.113   0.499
17345SOL    HW154042   3.651   3.188   0.465
17345SOL    HW254043   3.784   3.148   0.525
17346SOL     OW54044   6.594   6.832   4.566
17346SOL    HW154045   6.504   6.843   4.534
17346SOL    HW254046   6.585   6.810   4.658
17347SOL     OW54047   6.281   4.823   3.305
17347SOL    HW154048   6.286   4.864   3.218
17347SOL    HW254049   6.370   4.827   3.339
17348SOL     OW54050   8.446   1.791   2.801
17348SOL    HW154051   8.427   1.883   2.782
17348SOL    HW254052   8.417   1.778   2.891
17349SOL     OW54053   7.163   2.678   2.115
17349SOL    HW154054   7.117   2.761   2.119
17349SOL    HW254055   7.252   2.701   2.087
17350SOL     OW54056   3.022   2.381   4.860
17350SOL    HW154057   2.999   2.471   4.880
17350SOL    HW254058   3.101   2.364   4.911
17351SOL     OW54059   7.746   0.127   4.813
17351SOL    HW154060   7.836   0.144   4.839
17351SOL    HW254061   7.693   0.179   4.873
17352SOL     OW54062   7.019   6.221  10.630
17352SOL    HW154063   7.110   6.193  10.618
17352SOL    HW254064   7.006   6.222  10.725
17353SOL     OW54065   4.487   8.054   8.321
17353SOL    HW154066   4.412   8.091   8.366
17353SOL    HW254067   4.533   8.129   8.284
17354SOL     OW54068   4.824   3.848   1.079
17354SOL    HW154069   4.901   3.903   1.064
17354SOL    HW254070   4.751   3.900   1.046
17355SOL     OW54071   7.489  10.309   5.555
17355SOL    HW154072   7.431  10.385   5.563
17355SOL    HW254073   7.474  10.277   5.466
17356SOL     OW54074   4.402   9.708   5.070
17356SOL    HW154075   4.410   9.793   5.027
17356SOL    HW254076   4.397   9.645   4.998
17357SOL     OW54077   1.515   5.055   3.485
17357SOL    HW154078   1.428   5.032   3.516
17357SOL    HW254079   1.507   5.146   3.457
17358SOL     OW54080   5.095   0.960   8.555
17358SOL    HW154081   5.107   0.865   8.565
17358SOL    HW254082   5.018   0.980   8.607
17359SOL     OW54083   6.795   0.733   5.443
17359SOL    HW154084   6.862   0.724   5.375
17359SOL    HW254085   6.814   0.817   5.485
17360SOL     OW54086   7.064   7.321   2.245
17360SOL    HW154087   7.055   7.409   2.208
17360SOL    HW254088   7.006   7.267   2.191
17361SOL     OW54089  10.427   2.477   6.178
17361SOL    HW154090  10.420   2.524   6.261
17361SOL    HW254091  10.337   2.470   6.147
17362SOL     OW54092   0.304   7.209   0.879
17362SOL    HW154093   0.262   7.213   0.793
17362SOL    HW254094   0.239   7.167   0.935
17363SOL     OW54095   3.956  10.506   0.119
17363SOL    HW154096   3.938  10.496   0.213
17363SOL    HW254097   4.031  10.565   0.115
17364SOL     OW54098  10.495   4.306   2.518
17364SOL    HW154099  10.561   4.338   2.456
17364SOL    HW254100  10.526   4.218   2.542
17365SOL     OW54101   8.345   7.626   2.732
17365SOL    HW154102   8.350   7.619   2.636
17365SOL    HW254103   8.256   7.597   2.754
17366SOL     OW54104   4.885   6.417   3.973
17366SOL    HW154105   4.914   6.327   3.957
17366SOL    HW254106   4.952   6.471   3.932
17367SOL     OW54107   4.544   8.502   0.897
17367SOL    HW154108   4.554   8.447   0.975
17367SOL    HW254109   4.587   8.584   0.920
17368SOL     OW54110  10.433   2.614   0.035
17368SOL    HW154111  10.480   2.534   0.059
17368SOL    HW254112  10.398   2.647   0.118
17369SOL     OW54113   3.707   4.595   1.395
17369SOL    HW154114   3.741   4.644   1.320
17369SOL    HW254115   3.614   4.618   1.399
17370SOL     OW54116  10.042   3.633  10.511
17370SOL    HW154117   9.993   3.578  10.449
17370SOL    HW254118   9.980   3.650  10.582
17371SOL     OW54119   1.452   6.286   1.550
17371SOL    HW154120   1.465   6.379   1.534
17371SOL    HW254121   1.457   6.246   1.463
17372SOL     OW54122   5.255   9.492   2.319
17372SOL    HW154123   5.266   9.528   2.406
17372SOL    HW254124   5.265   9.567   2.260
17373SOL     OW54125   8.226   8.554   9.587
17373SOL    HW154126   8.174   8.633   9.577
17373SOL    HW254127   8.187   8.509   9.662
17374SOL     OW54128   3.786   8.316   1.184
17374SOL    HW154129   3.725   8.387   1.165
17374SOL    HW254130   3.730   8.240   1.202
17375SOL     OW54131   4.934   0.405   8.457
17375SOL    HW154132   4.892   0.343   8.397
17375SOL    HW254133   4.935   0.488   8.409
17376SOL     OW54134   8.226   2.400   1.230
17376SOL    HW154135   8.159   2.350   1.277
17376SOL    HW254136   8.305   2.346   1.237
17377SOL     OW54137   7.702   3.415  10.268
17377SOL    HW154138   7.674   3.327  10.243
17377SOL    HW254139   7.680   3.422  10.361
17378SOL     OW54140   7.512   5.229   1.183
17378SOL    HW154141   7.593   5.193   1.219
17378SOL    HW254142   7.523   5.221   1.088
17379SOL     OW54143   8.528   5.893   8.162
17379SOL    HW154144   8.449   5.898   8.215
17379SOL    HW254145   8.583   5.965   8.193
17380SOL     OW54146   4.907   8.926   3.062
17380SOL    HW154147   4.863   8.986   3.121
17380SOL    HW254148   4.972   8.980   3.017
17381SOL     OW54149   6.919   4.404  10.818
17381SOL    HW154150   7.000   4.375  10.774
17381SOL    HW254151   6.948   4.437  10.903
17382SOL     OW54152  10.166   9.956   9.586
17382SOL    HW154153  10.255   9.927   9.566
17382SOL    HW254154  10.178  10.039   9.631
17383SOL     OW54155   6.603   4.915   8.864
17383SOL    HW154156   6.647   4.967   8.796
17383SOL    HW254157   6.540   4.861   8.815
17384SOL     OW54158   9.365   1.928  10.885
17384SOL    HW154159   9.400   1.952  10.970
17384SOL    HW254160   9.439   1.937  10.825
17385SOL     OW54161   0.634   1.712   0.157
17385SOL    HW154162   0.730   1.708   0.152
17385SOL    HW254163   0.616   1.781   0.221
17386SOL     OW54164   3.549   7.311  10.150
17386SOL    HW154165   3.458   7.300  10.176
17386SOL    HW254166   3.545   7.364  10.070
17387SOL     OW54167   3.986   0.377   2.279
17387SOL    HW154168   4.066   0.395   2.229
17387SOL    HW254169   3.919   0.430   2.237
17388SOL     OW54170   0.213   4.497   6.791
17388SOL    HW154171   0.210   4.570   6.729
17388SOL    HW254172   0.122   4.469   6.800
17389SOL     OW54173   5.634   1.645   9.994
17389SOL    HW154174   5.697   1.624   9.924
17389SOL    HW254175   5.649   1.577  10.060
17390SOL     OW54176   4.852   0.051   1.985
17390SOL    HW154177   4.850   0.040   2.080
17390SOL    HW254178   4.803  -0.025   1.951
17391SOL     OW54179   4.321   2.216   2.933
17391SOL    HW154180   4.230   2.190   2.946
17391SOL    HW254181   4.371   2.158   2.990
17392SOL     OW54182   3.958   2.193   2.265
17392SOL    HW154183   3.979   2.107   2.303
17392SOL    HW254184   3.999   2.191   2.178
17393SOL     OW54185   6.214   9.277   0.408
17393SOL    HW154186   6.149   9.226   0.456
17393SOL    HW254187   6.238   9.220   0.334
17394SOL     OW54188   3.561   2.466   4.954
17394SOL    HW154189   3.494   2.533   4.966
17394SOL    HW254190   3.519   2.398   4.900
17395SOL     OW54191   9.168   3.281   6.642
17395SOL    HW154192   9.123   3.356   6.604
17395SOL    HW254193   9.257   3.287   6.608
17396SOL     OW54194   6.773   7.832   4.327
17396SOL    HW154195   6.845   7.812   4.387
17396SOL    HW254196   6.809   7.898   4.268
17397SOL     OW54197   2.145   2.230   7.227
17397SOL    HW154198   2.165   2.318   7.257
17397SOL    HW254199   2.209   2.213   7.158
17398SOL     OW54200   6.318   1.236  10.829
17398SOL    HW154201   6.240   1.287  10.809
17398SOL    HW254202   6.285   1.160  10.877
17399SOL     OW54203   7.890   0.339   6.057
17399SOL    HW154204   7.875   0.431   6.075
17399SOL    HW254205   7.909   0.300   6.142
17400SOL     OW54206  10.169   6.463   3.619
17400SOL    HW154207  10.220   6.492   3.694
17400SOL    HW254208  10.191   6.370   3.610
17401SOL     OW54209   6.481  10.975   9.238
17401SOL    HW154210   6.479  10.922   9.158
17401SOL    HW254211   6.473  10.912   9.309
17402SOL     OW54212   3.210   7.817  10.591
17402SOL    HW154213   3.128   7.832  10.637
17402SOL    HW254214   3.185   7.804  10.499
17403SOL     OW54215   3.375   6.517   0.236
17403SOL    HW154216   3.321   6.588   0.269
17403SOL    HW254217   3.384   6.457   0.310
17404SOL     OW54218   6.198   6.263   2.799
17404SOL    HW154219   6.286   6.238   2.827
17404SOL    HW254220   6.140   6.223   2.864
17405SOL     OW54221   6.974   5.269   9.692
17405SOL    HW154222   6.943   5.265   9.782
17405SOL    HW254223   7.000   5.179   9.672
17406SOL     OW54224   7.611   3.576   2.899
17406SOL    HW154225   7.599   3.495   2.848
17406SOL    HW254226   7.522   3.604   2.921
17407SOL     OW54227   8.105   6.621  10.098
17407SOL    HW154228   8.155   6.687  10.050
17407SOL    HW254229   8.147   6.617  10.184
17408SOL     OW54230  10.015   1.197   2.736
17408SOL    HW154231   9.924   1.203   2.707
17408SOL    HW254232  10.021   1.259   2.809
17409SOL     OW54233   0.716   9.722   5.194
17409SOL    HW154234   0.729   9.816   5.189
17409SOL    HW254235   0.726   9.692   5.103
17410SOL     OW54236   1.780   3.954   5.370
17410SOL    HW154237   1.823   4.039   5.372
17410SOL    HW254238   1.750   3.944   5.279
17411SOL     OW54239  10.109   9.597   6.512
17411SOL    HW154240  10.030   9.609   6.565
17411SOL    HW254241  10.153   9.682   6.515
17412SOL     OW54242   2.955   6.471   6.755
17412SOL    HW154243   2.988   6.477   6.665
17412SOL    HW254244   3.030   6.494   6.810
17413SOL     OW54245  10.076   5.304   1.086
17413SOL    HW154246  10.136   5.333   1.154
17413SOL    HW254247  10.011   5.251   1.132
17414SOL     OW54248   6.214   3.423   3.182
17414SOL    HW154249   6.139   3.370   3.210
17414SOL    HW254250   6.234   3.480   3.256
17415SOL     OW54251   2.407   6.903   7.824
17415SOL    HW154252   2.353   6.972   7.862
17415SOL    HW254253   2.406   6.833   7.889
17416SOL     OW54254   6.665   7.833   3.902
17416SOL    HW154255   6.689   7.762   3.961
17416SOL    HW254256   6.665   7.911   3.956
17417SOL     OW54257   6.693   3.654   4.161
17417SOL    HW154258   6.636   3.651   4.084
17417SOL    HW254259   6.703   3.747   4.180
17418SOL     OW54260  10.162   7.457   8.312
17418SOL    HW154261  10.247   7.415   8.298
17418SOL    HW254262  10.162   7.531   8.252
17419SOL     OW54263   4.723   3.170   9.987
17419SOL    HW154264   4.676   3.093   9.955
17419SOL    HW254265   4.656   3.224  10.028
17420SOL     OW54266   7.334   5.287   3.983
17420SOL    HW154267   7.331   5.238   4.065
17420SOL    HW254268   7.263   5.351   3.990
17421SOL     OW54269   3.143   5.035   0.149
17421SOL    HW154270   3.142   4.970   0.220
17421SOL    HW254271   3.218   5.091   0.170
17422SOL     OW54272   4.330   2.426   9.685
17422SOL    HW154273   4.329   2.380   9.601
17422SOL    HW254274   4.420   2.458   9.694
17423SOL     OW54275   5.867   5.468   2.182
17423SOL    HW154276   5.810   5.425   2.118
17423SOL    HW254277   5.828   5.554   2.195
17424SOL     OW54278   3.696   3.960   9.981
17424SOL    HW154279   3.713   3.866   9.970
17424SOL    HW254280   3.776   3.994  10.022
17425SOL     OW54281   4.437   5.362   4.154
17425SOL    HW154282   4.439   5.433   4.090
17425SOL    HW254283   4.346   5.359   4.184
17426SOL     OW54284   6.255  10.960   9.701
17426SOL    HW154285   6.252  10.870   9.732
17426SOL    HW254286   6.164  10.990   9.706
17427SOL     OW54287   4.144   6.492   9.932
17427SOL    HW154288   4.152   6.477   9.838
17427SOL    HW254289   4.065   6.545   9.941
17428SOL     OW54290  10.025   6.442   3.339
17428SOL    HW154291  10.083   6.390   3.394
17428SOL    HW254292  10.049   6.532   3.357
17429SOL     OW54293   4.064   6.300   4.851
17429SOL    HW154294   4.006   6.375   4.842
17429SOL    HW254295   4.006   6.224   4.842
17430SOL     OW54296  10.451   1.718   1.758
17430SOL    HW154297  10.375   1.664   1.736
17430SOL    HW254298  10.513   1.656   1.797
17431SOL     OW54299   1.810   5.008   2.918
17431SOL    HW154300   1.816   5.062   2.996
17431SOL    HW254301   1.829   5.067   2.846
17432SOL     OW54302   4.085  10.050  10.669
17432SOL    HW154303   4.176  10.081  10.670
17432SOL    HW254304   4.040  10.108  10.607
17433SOL     OW54305   9.004   6.891   1.824
17433SOL    HW154306   9.073   6.957   1.817
17433SOL    HW254307   8.930   6.928   1.776
17434SOL     OW54308   6.979   3.038   1.711
17434SOL    HW154309   6.963   3.068   1.621
17434SOL    HW254310   6.898   3.056   1.757
17435SOL     OW54311   7.026   8.879   5.046
17435SOL    HW154312   7.105   8.825   5.035
17435SOL    HW254313   7.058   8.969   5.043
17436SOL     OW54314   3.375   3.139   1.692
17436SOL    HW154315   3.293   3.175   1.658
17436SOL    HW254316   3.380   3.170   1.782
17437SOL     OW54317   4.659   7.171   5.043
17437SOL    HW154318   4.681   7.264   5.043
17437SOL    HW254319   4.711   7.134   4.971
17438SOL     OW54320   1.541   9.050   1.471
17438SOL    HW154321   1.567   9.044   1.379
17438SOL    HW254322   1.612   9.099   1.513
17439SOL     OW54323   4.360   3.763   5.983
17439SOL    HW154324   4.451   3.779   6.007
17439SOL    HW254325   4.362   3.679   5.937
17440SOL     OW54326   7.871   4.613   1.774
17440SOL    HW154327   7.914   4.680   1.827
17440SOL    HW254328   7.825   4.557   1.837
17441SOL     OW54329   1.758   0.768   9.969
17441SOL    HW154330   1.714   0.837   9.920
17441SOL    HW254331   1.694   0.697   9.972
17442SOL     OW54332   5.859   6.253  10.030
17442SOL    HW154333   5.832   6.295   9.948
17442SOL    HW254334   5.832   6.313  10.099
17443SOL     OW54335   6.672   2.119   1.051
17443SOL    HW154336   6.615   2.123   0.974
17443SOL    HW254337   6.668   2.027   1.079
17444SOL     OW54338  10.578   7.213   4.590
17444SOL    HW154339  10.616   7.264   4.661
17444SOL    HW254340  10.644   7.146   4.571
17445SOL     OW54341   7.254   5.732   8.271
17445SOL    HW154342   7.174   5.750   8.222
17445SOL    HW254343   7.318   5.792   8.234
17446SOL     OW54344   5.408   3.004   0.079
17446SOL    HW154345   5.405   3.076   0.142
17446SOL    HW254346   5.452   3.040   0.002
17447SOL     OW54347   3.418   9.236   5.065
17447SOL    HW154348   3.442   9.259   4.975
17447SOL    HW254349   3.455   9.148   5.077
17448SOL     OW54350  10.507   9.296   5.614
17448SOL    HW154351  10.593   9.274   5.579
17448SOL    HW254352  10.520   9.378   5.661
17449SOL     OW54353   7.443   6.093   1.593
17449SOL    HW154354   7.375   6.037   1.556
17449SOL    HW254355   7.399   6.143   1.661
17450SOL     OW54356   4.705   0.816   0.265
17450SOL    HW154357   4.693   0.767   0.346
17450SOL    HW254358   4.736   0.750   0.202
17451SOL     OW54359   0.851   6.222   8.281
17451SOL    HW154360   0.836   6.183   8.194
17451SOL    HW254361   0.853   6.316   8.265
17452SOL     OW54362   6.434   6.010   8.177
17452SOL    HW154363   6.501   6.011   8.245
17452SOL    HW254364   6.402   5.919   8.176
17453SOL     OW54365  10.866  10.394  10.869
17453SOL    HW154366  10.878  10.470  10.812
17453SOL    HW254367  10.897  10.320  10.816
17454SOL     OW54368   7.387   7.528   1.203
17454SOL    HW154369   7.426   7.518   1.290
17454SOL    HW254370   7.299   7.561   1.220
17455SOL     OW54371   2.794   1.450   2.440
17455SOL    HW154372   2.834   1.389   2.378
17455SOL    HW254373   2.822   1.536   2.409
17456SOL     OW54374   5.679   5.044  10.796
17456SOL    HW154375   5.718   5.071  10.713
17456SOL    HW254376   5.733   4.970  10.825
17457SOL     OW54377   3.549   4.645   7.476
17457SOL    HW154378   3.511   4.578   7.418
17457SOL    HW254379   3.506   4.631   7.560
17458SOL     OW54380   2.934   7.726   8.724
17458SOL    HW154381   2.854   7.680   8.698
17458SOL    HW254382   2.998   7.702   8.657
17459SOL     OW54383   0.556   0.185   5.915
17459SOL    HW154384   0.629   0.156   5.970
17459SOL    HW254385   0.537   0.109   5.860
17460SOL     OW54386   8.252   9.849   4.504
17460SOL    HW154387   8.238   9.883   4.592
17460SOL    HW254388   8.164   9.842   4.467
17461SOL     OW54389   3.110   3.343   8.790
17461SOL    HW154390   3.099   3.398   8.867
17461SOL    HW254391   3.056   3.383   8.722
17462SOL     OW54392   4.256   5.757   4.576
17462SOL    HW154393   4.268   5.820   4.646
17462SOL    HW254394   4.239   5.674   4.621
17463SOL     OW54395   6.056   3.528   3.579
17463SOL    HW154396   6.009   3.453   3.542
17463SOL    HW254397   6.148   3.510   3.560
17464SOL     OW54398   8.755   4.850  11.057
17464SOL    HW154399   8.756   4.797  10.977
17464SOL    HW254400   8.663   4.869  11.072
17465SOL     OW54401   4.232   6.641   9.461
17465SOL    HW154402   4.162   6.649   9.525
17465SOL    HW254403   4.199   6.579   9.396
17466SOL     OW54404   2.289   6.479  11.073
17466SOL    HW154405   2.242   6.461  10.991
17466SOL    HW254406   2.228   6.531  11.125
17467SOL     OW54407   4.440   6.027   0.745
17467SOL    HW154408   4.411   6.089   0.812
17467SOL    HW254409   4.397   6.057   0.665
17468SOL     OW54410   0.131   5.858   1.063
17468SOL    HW154411   0.189   5.932   1.046
17468SOL    HW254412   0.107   5.867   1.155
17469SOL     OW54413   8.906   3.525   9.252
17469SOL    HW154414   8.942   3.600   9.299
17469SOL    HW254415   8.977   3.460   9.252
17470SOL     OW54416   4.267   6.885   0.645
17470SOL    HW154417   4.205   6.947   0.683
17470SOL    HW254418   4.223   6.800   0.651
17471SOL     OW54419   3.001   7.270   0.736
17471SOL    HW154420   2.978   7.178   0.751
17471SOL    HW254421   3.006   7.277   0.640
17472SOL     OW54422   8.919   7.578   9.965
17472SOL    HW154423   8.898   7.585   9.872
17472SOL    HW254424   9.003   7.623   9.974
17473SOL     OW54425   9.847   4.006   2.340
17473SOL    HW154426   9.848   4.070   2.269
17473SOL    HW254427   9.891   4.050   2.412
17474SOL     OW54428   9.727   5.172   8.322
17474SOL    HW154429   9.658   5.156   8.258
17474SOL    HW254430   9.808   5.152   8.275
17475SOL     OW54431   4.591   3.411   4.465
17475SOL    HW154432   4.553   3.480   4.411
17475SOL    HW254433   4.686   3.421   4.453
17476SOL     OW54434   6.067   6.310   7.189
17476SOL    HW154435   6.077   6.401   7.162
17476SOL    HW254436   5.973   6.299   7.202
17477SOL     OW54437   4.247   3.844   2.742
17477SOL    HW154438   4.174   3.905   2.750
17477SOL    HW254439   4.315   3.879   2.799
17478SOL     OW54440   0.636   8.913   0.567
17478SOL    HW154441   0.604   8.953   0.486
17478SOL    HW254442   0.573   8.843   0.586
17479SOL     OW54443   1.097   4.017   2.205
17479SOL    HW154444   1.168   4.011   2.269
17479SOL    HW254445   1.110   4.101   2.162
17480SOL     OW54446   5.949   0.927  10.736
17480SOL    HW154447   5.926   1.015  10.708
17480SOL    HW254448   5.916   0.870  10.666
17481SOL     OW54449   2.649   2.156   9.880
17481SOL    HW154450   2.636   2.213   9.955
17481SOL    HW254451   2.652   2.068   9.917
17482SOL     OW54452   2.717   2.794  10.710
17482SOL    HW154453   2.659   2.809  10.635
17482SOL    HW254454   2.680   2.848  10.780
17483SOL     OW54455   6.380   8.729   2.077
17483SOL    HW154456   6.417   8.653   2.030
17483SOL    HW254457   6.293   8.700   2.105
17484SOL     OW54458   9.238   0.233   3.471
17484SOL    HW154459   9.226   0.328   3.466
17484SOL    HW254460   9.203   0.200   3.388
17485SOL     OW54461   8.626  10.418   2.708
17485SOL    HW154462   8.562  10.353   2.734
17485SOL    HW254463   8.699  10.367   2.674
17486SOL     OW54464  10.941   0.064   5.357
17486SOL    HW154465  10.870   0.127   5.352
17486SOL    HW254466  10.912  -0.009   5.302
17487SOL     OW54467   0.689   5.145   8.222
17487SOL    HW154468   0.617   5.093   8.186
17487SOL    HW254469   0.705   5.108   8.309
17488SOL     OW54470   4.352  10.417   6.002
17488SOL    HW154471   4.262  10.410   6.034
17488SOL    HW254472   4.355  10.358   5.926
17489SOL     OW54473   2.445   4.621   6.360
17489SOL    HW154474   2.447   4.630   6.264
17489SOL    HW254475   2.352   4.626   6.382
17490SOL     OW54476   4.710   8.623  10.766
17490SOL    HW154477   4.781   8.564  10.794
17490SOL    HW254478   4.750   8.677  10.698
17491SOL     OW54479   0.917   4.026   6.837
17491SOL    HW154480   0.961   4.051   6.918
17491SOL    HW254481   0.988   3.994   6.780
17492SOL     OW54482   2.397   7.775   3.585
17492SOL    HW154483   2.446   7.694   3.598
17492SOL    HW254484   2.331   7.753   3.519
17493SOL     OW54485  10.692   3.801   6.075
17493SOL    HW154486  10.701   3.728   6.014
17493SOL    HW254487  10.598   3.811   6.086
17494SOL     OW54488   7.909   1.135   3.628
17494SOL    HW154489   7.998   1.158   3.603
17494SOL    HW254490   7.854   1.188   3.571
17495SOL     OW54491   7.098   4.183   5.534
17495SOL    HW154492   7.109   4.244   5.607
17495SOL    HW254493   7.005   4.189   5.512
17496SOL     OW54494   3.187   0.151   5.069
17496SOL    HW154495   3.203   0.062   5.101
17496SOL    HW254496   3.251   0.163   4.998
17497SOL     OW54497   3.940   7.517   2.103
17497SOL    HW154498   3.881   7.451   2.066
17497SOL    HW254499   3.924   7.514   2.197
17498SOL     OW54500   7.309   1.365   4.017
17498SOL    HW154501   7.359   1.398   4.092
17498SOL    HW254502   7.373   1.360   3.946
17499SOL     OW54503   3.309   5.493   7.245
17499SOL    HW154504   3.385   5.470   7.190
17499SOL    HW254505   3.314   5.588   7.255
17500SOL     OW54506   3.681   0.679   0.874
17500SOL    HW154507   3.739   0.754   0.862
17500SOL    HW254508   3.712   0.615   0.809
17501SOL     OW54509   3.009   7.044   2.871
17501SOL    HW154510   2.987   6.996   2.951
17501SOL    HW254511   3.066   6.984   2.822
17502SOL     OW54512   0.476   2.399   0.858
17502SOL    HW154513   0.509   2.341   0.788
17502SOL    HW254514   0.554   2.442   0.891
17503SOL     OW54515   3.878   7.660   4.637
17503SOL    HW154516   3.828   7.588   4.598
17503SOL    HW254517   3.958   7.618   4.670
17504SOL     OW54518   0.834   8.601   2.317
17504SOL    HW154519   0.924   8.600   2.283
17504SOL    HW254520   0.840   8.553   2.399
17505SOL     OW54521   5.161   2.457   0.453
17505SOL    HW154522   5.084   2.478   0.400
17505SOL    HW254523   5.129   2.394   0.518
17506SOL     OW54524   9.738   0.483   9.006
17506SOL    HW154525   9.767   0.567   9.041
17506SOL    HW254526   9.719   0.501   8.914
17507SOL     OW54527   0.566   1.687   5.040
17507SOL    HW154528   0.542   1.668   5.130
17507SOL    HW254529   0.544   1.607   4.992
17508SOL     OW54530   8.971   1.133   6.784
17508SOL    HW154531   8.956   1.192   6.858
17508SOL    HW254532   8.909   1.061   6.798
17509SOL     OW54533   5.939   3.585   2.129
17509SOL    HW154534   5.916   3.664   2.081
17509SOL    HW254535   5.939   3.611   2.221
17510SOL     OW54536   3.912   9.993   0.066
17510SOL    HW154537   3.887   9.915   0.017
17510SOL    HW254538   4.007   9.997   0.056
17511SOL     OW54539   5.332   8.393   4.189
17511SOL    HW154540   5.386   8.411   4.112
17511SOL    HW254541   5.395   8.372   4.258
17512SOL     OW54542   6.111   2.207   9.193
17512SOL    HW154543   6.193   2.242   9.227
17512SOL    HW254544   6.104   2.244   9.105
17513SOL     OW54545   2.092   1.641   2.907
17513SOL    HW154546   2.137   1.565   2.946
17513SOL    HW254547   2.002   1.611   2.893
17514SOL     OW54548   5.272   3.455   4.986
17514SOL    HW154549   5.292   3.379   4.931
17514SOL    HW254550   5.331   3.446   5.061
17515SOL     OW54551   7.833   1.691   4.672
17515SOL    HW154552   7.840   1.785   4.684
17515SOL    HW254553   7.793   1.681   4.585
17516SOL     OW54554   8.231   0.826   5.629
17516SOL    HW154555   8.284   0.763   5.678
17516SOL    HW254556   8.281   0.907   5.633
17517SOL     OW54557   5.219   5.553   3.340
17517SOL    HW154558   5.132   5.515   3.332
17517SOL    HW254559   5.258   5.509   3.415
17518SOL     OW54560   3.868   0.224   1.870
17518SOL    HW154561   3.774   0.238   1.876
17518SOL    HW254562   3.898   0.286   1.803
17519SOL     OW54563   8.344   5.511   0.877
17519SOL    HW154564   8.389   5.453   0.939
17519SOL    HW254565   8.414   5.565   0.840
17520SOL     OW54566  10.235  10.248   9.585
17520SOL    HW154567  10.195  10.255   9.498
17520SOL    HW254568  10.314  10.301   9.579
17521SOL     OW54569   6.246   4.125   8.556
17521SOL    HW154570   6.236   4.164   8.469
17521SOL    HW254571   6.168   4.152   8.603
17522SOL     OW54572   4.778   5.302   1.531
17522SOL    HW154573   4.698   5.255   1.507
17522SOL    HW254574   4.748   5.378   1.579
17523SOL     OW54575   4.661   4.037   2.375
17523SOL    HW154576   4.752   4.018   2.350
17523SOL    HW254577   4.632   4.102   2.311
17524SOL     OW54578   9.797   5.401   0.993
17524SOL    HW154579   9.873   5.436   1.039
17524SOL    HW254580   9.783   5.315   1.032
17525SOL     OW54581   3.584   1.002   0.012
17525SOL    HW154582   3.662   1.057   0.002
17525SOL    HW254583   3.617   0.919   0.048
17526SOL     OW54584   4.851   3.238   3.056
17526SOL    HW154585   4.901   3.308   3.015
17526SOL    HW254586   4.814   3.189   2.982
17527SOL     OW54587   5.744   4.895   2.848
17527SOL    HW154588   5.772   4.930   2.932
17527SOL    HW254589   5.741   4.800   2.861
17528SOL     OW54590   2.665   6.134   0.120
17528SOL    HW154591   2.683   6.208   0.062
17528SOL    HW254592   2.601   6.081   0.073
17529SOL     OW54593   8.643   1.876   0.216
17529SOL    HW154594   8.609   1.907   0.299
17529SOL    HW254595   8.667   1.785   0.232
17530SOL     OW54596   6.499   0.108   5.300
17530SOL    HW154597   6.526   0.147   5.383
17530SOL    HW254598   6.407   0.132   5.290
17531SOL     OW54599   4.950   3.327  10.880
17531SOL    HW154600   4.883   3.366  10.824
17531SOL    HW254601   4.964   3.240  10.842
17532SOL     OW54602   9.273   8.056   9.207
17532SOL    HW154603   9.220   8.079   9.131
17532SOL    HW254604   9.259   7.962   9.219
17533SOL     OW54605   3.170   6.117   0.823
17533SOL    HW154606   3.229   6.116   0.747
17533SOL    HW254607   3.228   6.129   0.898
17534SOL     OW54608   5.677   3.974   2.912
17534SOL    HW154609   5.678   4.066   2.888
17534SOL    HW254610   5.689   3.927   2.829
17535SOL     OW54611   4.928   6.475   2.850
17535SOL    HW154612   4.907   6.382   2.859
17535SOL    HW254613   4.946   6.486   2.756
17536SOL     OW54614   8.581   1.660   4.316
17536SOL    HW154615   8.623   1.737   4.278
17536SOL    HW254616   8.489   1.668   4.291
17537SOL     OW54617   4.764   6.435   9.338
17537SOL    HW154618   4.777   6.525   9.365
17537SOL    HW254619   4.793   6.383   9.412
17538SOL     OW54620   2.134   6.666   5.113
17538SOL    HW154621   2.156   6.702   5.027
17538SOL    HW254622   2.184   6.719   5.175
17539SOL     OW54623   2.681   2.214   2.590
17539SOL    HW154624   2.621   2.231   2.662
17539SOL    HW254625   2.682   2.295   2.539
17540SOL     OW54626   4.338   1.656  10.741
17540SOL    HW154627   4.331   1.674  10.834
17540SOL    HW254628   4.270   1.710  10.700
17541SOL     OW54629  10.434   8.413   1.495
17541SOL    HW154630  10.519   8.411   1.540
17541SOL    HW254631  10.447   8.475   1.423
17542SOL     OW54632   4.086   0.585   4.697
17542SOL    HW154633   4.167   0.618   4.658
17542SOL    HW254634   4.100   0.594   4.791
17543SOL     OW54635   6.193   2.242   1.543
17543SOL    HW154636   6.163   2.263   1.454
17543SOL    HW254637   6.114   2.243   1.596
17544SOL     OW54638   4.061   4.228   5.325
17544SOL    HW154639   4.113   4.206   5.402
17544SOL    HW254640   4.048   4.322   5.331
17545SOL     OW54641   6.678   2.561   4.023
17545SOL    HW154642   6.720   2.623   4.082
17545SOL    HW254643   6.691   2.597   3.935
17546SOL     OW54644   7.654   6.681   0.943
17546SOL    HW154645   7.749   6.682   0.934
17546SOL    HW254646   7.623   6.637   0.864
17547SOL     OW54647   2.824   3.673   7.698
17547SOL    HW154648   2.900   3.624   7.731
17547SOL    HW254649   2.790   3.719   7.774
17548SOL     OW54650   7.146   6.506   9.273
17548SOL    HW154651   7.139   6.428   9.328
17548SOL    HW254652   7.206   6.564   9.320
17549SOL     OW54653   3.050   4.341   4.509
17549SOL    HW154654   3.140   4.340   4.476
17549SOL    HW254655   3.018   4.252   4.493
17550SOL     OW54656   2.711   2.489   4.860
17550SOL    HW154657   2.700   2.491   4.955
17550SOL    HW254658   2.784   2.549   4.843
17551SOL     OW54659   9.292   9.092   8.625
17551SOL    HW154660   9.245   9.077   8.543
17551SOL    HW254661   9.234   9.149   8.676
17552SOL     OW54662  11.023   8.541  10.132
17552SOL    HW154663  10.956   8.485  10.092
17552SOL    HW254664  11.074   8.574  10.058
17553SOL     OW54665   2.780   1.294   6.329
17553SOL    HW154666   2.814   1.284   6.240
17553SOL    HW254667   2.718   1.221   6.338
17554SOL     OW54668   8.629   7.384   4.263
17554SOL    HW154669   8.679   7.377   4.181
17554SOL    HW254670   8.567   7.311   4.258
17555SOL     OW54671  10.499   6.267   3.045
17555SOL    HW154672  10.418   6.301   3.082
17555SOL    HW254673  10.474   6.232   2.959
17556SOL     OW54674  10.965   9.278   8.594
17556SOL    HW154675  10.896   9.277   8.528
17556SOL    HW254676  11.011   9.195   8.581
17557SOL     OW54677   2.701   2.099   8.427
17557SOL    HW154678   2.788   2.135   8.410
17557SOL    HW254679   2.682   2.123   8.517
17558SOL     OW54680   2.195   6.874  10.276
17558SOL    HW154681   2.169   6.911  10.192
17558SOL    HW254682   2.206   6.780  10.258
17559SOL     OW54683   5.279   2.887   0.309
17559SOL    HW154684   5.353   2.932   0.269
17559SOL    HW254685   5.273   2.804   0.262
17560SOL     OW54686   8.184   8.964   0.944
17560SOL    HW154687   8.124   9.022   0.897
17560SOL    HW254688   8.181   8.881   0.895
17561SOL     OW54689   2.227   4.650   0.536
17561SOL    HW154690   2.247   4.627   0.445
17561SOL    HW254691   2.203   4.567   0.577
17562SOL     OW54692   5.130   7.867   6.836
17562SOL    HW154693   5.076   7.895   6.762
17562SOL    HW254694   5.082   7.793   6.874
17563SOL     OW54695   5.845   1.951   9.009
17563SOL    HW154696   5.785   1.880   8.986
17563SOL    HW254697   5.855   2.000   8.928
17564SOL     OW54698  10.795   3.966   3.485
17564SOL    HW154699  10.813   3.951   3.577
17564SOL    HW254700  10.875   4.007   3.451
17565SOL     OW54701   4.262  10.330   0.696
17565SOL    HW154702   4.260  10.271   0.771
17565SOL    HW254703   4.170  10.344   0.674
17566SOL     OW54704   0.267   2.623   6.355
17566SOL    HW154705   0.175   2.617   6.382
17566SOL    HW254706   0.279   2.715   6.332
17567SOL     OW54707   6.378   1.876   5.896
17567SOL    HW154708   6.295   1.886   5.850
17567SOL    HW254709   6.387   1.956   5.947
17568SOL     OW54710   6.390   1.480   7.175
17568SOL    HW154711   6.323   1.520   7.120
17568SOL    HW254712   6.362   1.389   7.184
17569SOL     OW54713   5.889   0.535   6.440
17569SOL    HW154714   5.908   0.482   6.517
17569SOL    HW254715   5.975   0.562   6.407
17570SOL     OW54716   1.323   4.137   1.444
17570SOL    HW154717   1.302   4.139   1.350
17570SOL    HW254718   1.258   4.077   1.481
17571SOL     OW54719   6.265   0.202   4.094
17571SOL    HW154720   6.175   0.226   4.071
17571SOL    HW254721   6.262   0.187   4.188
17572SOL     OW54722   7.930   5.499   0.353
17572SOL    HW154723   7.956   5.545   0.432
17572SOL    HW254724   7.965   5.552   0.281
17573SOL     OW54725   3.750   9.240   2.565
17573SOL    HW154726   3.763   9.204   2.477
17573SOL    HW254727   3.687   9.311   2.553
17574SOL     OW54728   6.575   5.240   1.397
17574SOL    HW154729   6.605   5.328   1.419
17574SOL    HW254730   6.480   5.246   1.396
17575SOL     OW54731   9.100   7.895   4.593
17575SOL    HW154732   9.099   7.868   4.501
17575SOL    HW254733   9.132   7.985   4.591
17576SOL     OW54734   2.746   2.349   3.796
17576SOL    HW154735   2.795   2.303   3.864
17576SOL    HW254736   2.775   2.309   3.714
17577SOL     OW54737   5.476   5.361   8.099
17577SOL    HW154738   5.470   5.441   8.047
17577SOL    HW254739   5.570   5.341   8.102
17578SOL     OW54740   7.836   6.902   8.439
17578SOL    HW154741   7.887   6.902   8.520
17578SOL    HW254742   7.881   6.838   8.383
17579SOL     OW54743   1.897   6.750   8.449
17579SOL    HW154744   1.910   6.844   8.461
17579SOL    HW254745   1.969   6.709   8.497
17580SOL     OW54746   4.014   0.688   6.395
17580SOL    HW154747   3.951   0.642   6.339
17580SOL    HW254748   3.989   0.663   6.484
17581SOL     OW54749   7.270   6.523   0.804
17581SOL    HW154750   7.253   6.512   0.897
17581SOL    HW254751   7.333   6.595   0.799
17582SOL     OW54752   4.427   6.863   0.886
17582SOL    HW154753   4.362   6.889   0.951
17582SOL    HW254754   4.379   6.861   0.803
17583SOL     OW54755   0.847   7.381   4.635
17583SOL    HW154756   0.791   7.305   4.651
17583SOL    HW254757   0.851   7.388   4.539
17584SOL     OW54758   7.934   6.476   9.948
17584SOL    HW154759   7.853   6.467   9.997
17584SOL    HW254760   7.990   6.530  10.003
17585SOL     OW54761  10.417   2.514   3.367
17585SOL    HW154762  10.455   2.496   3.453
17585SOL    HW254763  10.411   2.609   3.363
17586SOL     OW54764   2.781   1.670   5.442
17586SOL    HW154765   2.843   1.622   5.386
17586SOL    HW254766   2.711   1.696   5.382
17587SOL     OW54767   3.658  11.081   0.267
17587SOL    HW154768   3.574  11.036   0.266
17587SOL    HW254769   3.677  11.095   0.359
17588SOL     OW54770   7.603   9.062   5.175
17588SOL    HW154771   7.631   9.153   5.170
17588SOL    HW254772   7.512   9.063   5.147
17589SOL     OW54773   8.893   1.424   2.662
17589SOL    HW154774   8.897   1.431   2.757
17589SOL    HW254775   8.958   1.487   2.630
17590SOL     OW54776   6.747   4.024   8.319
17590SOL    HW154777   6.842   4.026   8.333
17590SOL    HW254778   6.712   4.089   8.380
17591SOL     OW54779   3.053   8.381   5.833
17591SOL    HW154780   2.987   8.365   5.900
17591SOL    HW254781   3.099   8.459   5.862
17592SOL     OW54782   7.137   3.728   9.159
17592SOL    HW154783   7.069   3.704   9.096
17592SOL    HW254784   7.171   3.644   9.190
17593SOL     OW54785   7.556   7.098   3.290
17593SOL    HW154786   7.554   7.027   3.225
17593SOL    HW254787   7.495   7.163   3.256
17594SOL     OW54788   1.827   3.459   5.108
17594SOL    HW154789   1.851   3.494   5.022
17594SOL    HW254790   1.748   3.408   5.092
17595SOL     OW54791   9.973   1.461   4.812
17595SOL    HW154792  10.068   1.449   4.817
17595SOL    HW254793   9.958   1.496   4.724
17596SOL     OW54794   5.863   0.144   9.435
17596SOL    HW154795   5.782   0.109   9.397
17596SOL    HW254796   5.864   0.111   9.525
17597SOL     OW54797   3.114  10.851   1.004
17597SOL    HW154798   3.176  10.797   1.053
17597SOL    HW254799   3.103  10.804   0.921
17598SOL     OW54800   9.629   5.708   1.399
17598SOL    HW154801   9.681   5.705   1.479
17598SOL    HW254802   9.540   5.689   1.427
17599SOL     OW54803   1.964   6.662   8.966
17599SOL    HW154804   2.049   6.695   8.995
17599SOL    HW254805   1.947   6.587   9.022
17600SOL     OW54806   4.977   1.348   3.469
17600SOL    HW154807   4.971   1.437   3.436
17600SOL    HW254808   4.903   1.339   3.529
17601SOL     OW54809   7.251   2.214   7.305
17601SOL    HW154810   7.204   2.168   7.374
17601SOL    HW254811   7.238   2.159   7.227
17602SOL     OW54812   5.250   0.870   1.452
17602SOL    HW154813   5.335   0.873   1.496
17602SOL    HW254814   5.196   0.931   1.501
17603SOL     OW54815   8.293   1.601   9.949
17603SOL    HW154816   8.380   1.562   9.962
17603SOL    HW254817   8.244   1.577  10.027
17604SOL     OW54818   3.971   5.344   1.929
17604SOL    HW154819   3.948   5.424   1.881
17604SOL    HW254820   3.948   5.273   1.869
17605SOL     OW54821   7.076  10.306  10.644
17605SOL    HW154822   7.167  10.280  10.630
17605SOL    HW254823   7.062  10.294  10.738
17606SOL     OW54824   4.900   6.593   1.357
17606SOL    HW154825   4.837   6.653   1.397
17606SOL    HW254826   4.860   6.506   1.365
17607SOL     OW54827   8.628   6.937   5.816
17607SOL    HW154828   8.710   6.888   5.817
17607SOL    HW254829   8.605   6.948   5.908
17608SOL     OW54830   3.191   3.855   6.151
17608SOL    HW154831   3.139   3.799   6.209
17608SOL    HW254832   3.128   3.891   6.089
17609SOL     OW54833   0.497   1.607   3.392
17609SOL    HW154834   0.551   1.529   3.377
17609SOL    HW254835   0.522   1.637   3.479
17610SOL     OW54836   7.075  10.150   1.866
17610SOL    HW154837   7.093  10.153   1.772
17610SOL    HW254838   7.145  10.201   1.906
17611SOL     OW54839   8.729   8.973  10.950
17611SOL    HW154840   8.737   8.970  10.854
17611SOL    HW254841   8.636   8.988  10.966
17612SOL     OW54842   2.294   9.988   4.583
17612SOL    HW154843   2.226   9.933   4.543
17612SOL    HW254844   2.255  10.021   4.663
17613SOL     OW54845   6.565   5.680   3.689
17613SOL    HW154846   6.584   5.735   3.613
17613SOL    HW254847   6.493   5.725   3.733
17614SOL     OW54848   8.435   5.217   7.443
17614SOL    HW154849   8.524   5.211   7.478
17614SOL    HW254850   8.439   5.168   7.361
17615SOL     OW54851   5.963   0.440   1.398
17615SOL    HW154852   6.029   0.419   1.464
17615SOL    HW254853   5.882   0.452   1.447
17616SOL     OW54854   0.884   0.813   4.189
17616SOL    HW154855   0.817   0.881   4.189
17616SOL    HW254856   0.967   0.860   4.199
17617SOL     OW54857   5.321  11.027   0.272
17617SOL    HW154858   5.303  11.093   0.205
17617SOL    HW254859   5.258  11.046   0.341
17618SOL     OW54860   2.547   2.816   1.287
17618SOL    HW154861   2.493   2.783   1.359
17618SOL    HW254862   2.570   2.738   1.236
17619SOL     OW54863   2.322   4.667   2.335
17619SOL    HW154864   2.383   4.741   2.337
17619SOL    HW254865   2.338   4.626   2.250
17620SOL     OW54866   9.635   5.087   0.859
17620SOL    HW154867   9.565   5.142   0.823
17620SOL    HW254868   9.617   5.082   0.952
17621SOL     OW54869   3.707   9.853   3.787
17621SOL    HW154870   3.627   9.858   3.839
17621SOL    HW254871   3.770   9.808   3.843
17622SOL     OW54872   6.603   9.010   1.237
17622SOL    HW154873   6.541   9.082   1.241
17622SOL    HW254874   6.575   8.950   1.306
17623SOL     OW54875   5.882   6.739   3.714
17623SOL    HW154876   5.789   6.742   3.734
17623SOL    HW254877   5.905   6.646   3.722
17624SOL     OW54878  10.755   3.630   5.702
17624SOL    HW154879  10.746   3.625   5.797
17624SOL    HW254880  10.677   3.676   5.672
17625SOL     OW54881   4.527  10.101   1.200
17625SOL    HW154882   4.584  10.047   1.255
17625SOL    HW254883   4.443  10.056   1.202
17626SOL     OW54884   4.598   7.782   4.505
17626SOL    HW154885   4.590   7.872   4.536
17626SOL    HW254886   4.570   7.728   4.579
17627SOL     OW54887   6.631   2.542   6.535
17627SOL    HW154888   6.582   2.612   6.492
17627SOL    HW254889   6.585   2.462   6.510
17628SOL     OW54890   7.311   5.634   1.640
17628SOL    HW154891   7.320   5.538   1.640
17628SOL    HW254892   7.400   5.667   1.654
17629SOL     OW54893   5.537   5.424   0.034
17629SOL    HW154894   5.505   5.379  -0.044
17629SOL    HW254895   5.596   5.492   0.001
17630SOL     OW54896   4.166   4.138   7.608
17630SOL    HW154897   4.111   4.215   7.595
17630SOL    HW254898   4.231   4.165   7.672
17631SOL     OW54899   4.061  10.271   2.963
17631SOL    HW154900   3.978  10.234   2.994
17631SOL    HW254901   4.064  10.358   3.001
17632SOL     OW54902   6.297   5.178   2.852
17632SOL    HW154903   6.255   5.159   2.768
17632SOL    HW254904   6.372   5.233   2.829
17633SOL     OW54905  10.347   3.371   2.001
17633SOL    HW154906  10.256   3.367   2.029
17633SOL    HW254907  10.346   3.337   1.911
17634SOL     OW54908  10.751   9.440   2.111
17634SOL    HW154909  10.677   9.480   2.157
17634SOL    HW254910  10.814   9.418   2.180
17635SOL     OW54911   6.281   0.184   6.084
17635SOL    HW154912   6.273   0.096   6.120
17635SOL    HW254913   6.253   0.174   5.993
17636SOL     OW54914   7.348   1.964   2.514
17636SOL    HW154915   7.388   2.031   2.459
17636SOL    HW254916   7.285   1.921   2.456
17637SOL     OW54917   5.398   6.468   2.981
17637SOL    HW154918   5.410   6.376   3.005
17637SOL    HW254919   5.345   6.465   2.901
17638SOL     OW54920   4.543   1.400   6.459
17638SOL    HW154921   4.546   1.304   6.462
17638SOL    HW254922   4.506   1.420   6.373
17639SOL     OW54923   5.363   5.776   3.818
17639SOL    HW154924   5.319   5.701   3.858
17639SOL    HW254925   5.449   5.778   3.860
17640SOL     OW54926   8.427   5.020   3.809
17640SOL    HW154927   8.361   4.957   3.779
17640SOL    HW254928   8.405   5.101   3.763
17641SOL     OW54929   3.258   5.796   4.698
17641SOL    HW154930   3.287   5.812   4.788
17641SOL    HW254931   3.339   5.797   4.646
17642SOL     OW54932   8.284   0.354   2.986
17642SOL    HW154933   8.341   0.353   3.063
17642SOL    HW254934   8.345   0.348   2.912
17643SOL     OW54935   1.875   1.653   7.853
17643SOL    HW154936   1.896   1.611   7.936
17643SOL    HW254937   1.780   1.663   7.854
17644SOL     OW54938   3.517   8.319   9.494
17644SOL    HW154939   3.520   8.408   9.527
17644SOL    HW254940   3.426   8.291   9.505
17645SOL     OW54941   7.528   3.583   6.222
17645SOL    HW154942   7.564   3.671   6.234
17645SOL    HW254943   7.506   3.578   6.129
17646SOL     OW54944   6.988   1.935   0.444
17646SOL    HW154945   7.033   1.979   0.372
17646SOL    HW254946   6.964   2.005   0.504
17647SOL     OW54947   0.937   9.732   2.581
17647SOL    HW154948   0.997   9.762   2.649
17647SOL    HW254949   0.980   9.655   2.543
17648SOL     OW54950  10.040   4.878   0.239
17648SOL    HW154951   9.996   4.881   0.154
17648SOL    HW254952  10.016   4.792   0.275
17649SOL     OW54953   7.098   6.383   5.137
17649SOL    HW154954   7.143   6.303   5.110
17649SOL    HW254955   7.032   6.397   5.069
17650SOL     OW54956   3.852   3.142   4.540
17650SOL    HW154957   3.786   3.076   4.520
17650SOL    HW254958   3.815   3.224   4.508
17651SOL     OW54959   3.856   2.998   2.768
17651SOL    HW154960   3.786   2.953   2.815
17651SOL    HW254961   3.826   3.002   2.677
17652SOL     OW54962   1.724   3.580   9.968
17652SOL    HW154963   1.768   3.623   9.895
17652SOL    HW254964   1.696   3.651  10.025
17653SOL     OW54965   6.068   3.076   1.302
17653SOL    HW154966   5.985   3.104   1.340
17653SOL    HW254967   6.053   3.077   1.207
17654SOL     OW54968   3.495   9.317   0.197
17654SOL    HW154969   3.401   9.326   0.183
17654SOL    HW254970   3.502   9.257   0.271
17655SOL     OW54971   1.138   1.960   6.654
17655SOL    HW154972   1.229   1.973   6.627
17655SOL    HW254973   1.103   1.897   6.590
17656SOL     OW54974   1.625   2.979   2.027
17656SOL    HW154975   1.610   3.072   2.043
17656SOL    HW254976   1.538   2.940   2.028
17657SOL     OW54977  11.027   4.178  10.231
17657SOL    HW154978  11.036   4.159  10.137
17657SOL    HW254979  11.078   4.109  10.274
17658SOL     OW54980   3.863   2.770   6.906
17658SOL    HW154981   3.890   2.838   6.845
17658SOL    HW254982   3.800   2.813   6.963
17659SOL     OW54983   2.783   4.590   4.907
17659SOL    HW154984   2.857   4.535   4.880
17659SOL    HW254985   2.709   4.530   4.908
17660SOL     OW54986   2.403   3.236   2.022
17660SOL    HW154987   2.463   3.309   2.036
17660SOL    HW254988   2.331   3.273   1.972
17661SOL     OW54989   6.230   6.545   3.936
17661SOL    HW154990   6.275   6.626   3.959
17661SOL    HW254991   6.285   6.505   3.869
17662SOL     OW54992   3.882   2.543   9.255
17662SOL    HW154993   3.841   2.558   9.340
17662SOL    HW254994   3.814   2.563   9.191
17663SOL     OW54995   3.736   6.570  10.757
17663SOL    HW154996   3.688   6.497  10.717
17663SOL    HW254997   3.803   6.592  10.692
17664SOL     OW54998   3.885   5.392   6.440
17664SOL    HW154999   3.909   5.374   6.531
17664SOL    HW255000   3.790   5.399   6.441
17665SOL     OW55001   9.836   2.828   9.177
17665SOL    HW155002   9.862   2.808   9.267
17665SOL    HW255003   9.772   2.760   9.155
17666SOL     OW55004   6.035   2.477   5.510
17666SOL    HW155005   5.993   2.450   5.428
17666SOL    HW255006   5.974   2.449   5.578
17667SOL     OW55007   1.140   4.210  11.026
17667SOL    HW155008   1.060   4.229  10.977
17667SOL    HW255009   1.162   4.120  11.000
17668SOL     OW55010   7.324   6.905   6.302
17668SOL    HW155011   7.302   6.812   6.297
17668SOL    HW255012   7.420   6.907   6.297
17669SOL     OW55013   4.147   5.755   1.644
17669SOL    HW155014   4.184   5.690   1.583
17669SOL    HW255015   4.117   5.826   1.587
17670SOL     OW55016   6.431   9.897   0.699
17670SOL    HW155017   6.392   9.813   0.675
17670SOL    HW255018   6.361   9.944   0.744
17671SOL     OW55019   4.141   4.436   8.113
17671SOL    HW155020   4.155   4.503   8.046
17671SOL    HW255021   4.185   4.470   8.191
17672SOL     OW55022   5.282   1.348  10.514
17672SOL    HW155023   5.292   1.384  10.425
17672SOL    HW255024   5.304   1.421  10.572
17673SOL     OW55025   2.695   1.438   4.737
17673SOL    HW155026   2.677   1.515   4.791
17673SOL    HW255027   2.768   1.464   4.681
17674SOL     OW55028   6.252   0.159   4.363
17674SOL    HW155029   6.326   0.189   4.416
17674SOL    HW255030   6.257   0.063   4.367
17675SOL     OW55031   2.021   3.747   7.878
17675SOL    HW155032   2.045   3.723   7.967
17675SOL    HW255033   1.931   3.717   7.869
17676SOL     OW55034   3.807   2.957   3.160
17676SOL    HW155035   3.770   2.967   3.247
17676SOL    HW255036   3.899   2.934   3.175
17677SOL     OW55037   3.198   2.698   4.056
17677SOL    HW155038   3.112   2.666   4.029
17677SOL    HW255039   3.182   2.786   4.089
17678SOL     OW55040   2.463   5.242   8.460
17678SOL    HW155041   2.509   5.316   8.499
17678SOL    HW255042   2.391   5.224   8.520
17679SOL     OW55043   8.848   5.858   1.192
17679SOL    HW155044   8.910   5.930   1.203
17679SOL    HW255045   8.862   5.827   1.102
17680SOL     OW55046   8.344   7.093   9.612
17680SOL    HW155047   8.282   7.103   9.683
17680SOL    HW255048   8.427   7.124   9.648
17681SOL     OW55049   8.790   7.721   1.770
17681SOL    HW155050   8.766   7.805   1.731
17681SOL    HW255051   8.872   7.738   1.817
17682SOL     OW55052   3.529   8.200   7.693
17682SOL    HW155053   3.497   8.132   7.752
17682SOL    HW255054   3.607   8.235   7.736
17683SOL     OW55055   2.760   8.483  10.529
17683SOL    HW155056   2.676   8.437  10.529
17683SOL    HW255057   2.823   8.417  10.559
17684SOL     OW55058   3.194   4.943   3.042
17684SOL    HW155059   3.152   4.956   2.957
17684SOL    HW255060   3.199   4.848   3.052
17685SOL     OW55061   3.217   5.964   6.818
17685SOL    HW155062   3.278   5.901   6.778
17685SOL    HW255063   3.273   6.037   6.844
17686SOL     OW55064   2.353   3.646   5.655
17686SOL    HW155065   2.314   3.587   5.720
17686SOL    HW255066   2.280   3.673   5.600
17687SOL     OW55067  10.563   3.542  10.556
17687SOL    HW155068  10.652   3.508  10.551
17687SOL    HW255069  10.550   3.563  10.648
17688SOL     OW55070   4.484   3.559   2.172
17688SOL    HW155071   4.578   3.575   2.161
17688SOL    HW255072   4.449   3.643   2.202
17689SOL     OW55073   2.189   1.951   7.387
17689SOL    HW155074   2.101   1.919   7.367
17689SOL    HW255075   2.185   2.045   7.370
17690SOL     OW55076   7.984   1.441  10.989
17690SOL    HW155077   7.896   1.465  10.959
17690SOL    HW255078   8.036   1.435  10.909
17691SOL     OW55079   6.735   4.007   6.240
17691SOL    HW155080   6.698   4.034   6.324
17691SOL    HW255081   6.664   3.960   6.196
17692SOL     OW55082   0.103   3.339   6.442
17692SOL    HW155083   0.175   3.322   6.503
17692SOL    HW255084   0.101   3.262   6.385
17693SOL     OW55085   2.649   0.601   4.956
17693SOL    HW155086   2.679   0.691   4.949
17693SOL    HW255087   2.730   0.549   4.959
17694SOL     OW55088   6.126   5.459   3.915
17694SOL    HW155089   6.041   5.488   3.949
17694SOL    HW255090   6.172   5.423   3.991
17695SOL     OW55091   2.729   9.310   4.420
17695SOL    HW155092   2.729   9.242   4.352
17695SOL    HW255093   2.724   9.392   4.371
17696SOL     OW55094  10.574   8.967   4.106
17696SOL    HW155095  10.594   8.873   4.109
17696SOL    HW255096  10.486   8.971   4.069
17697SOL     OW55097   7.680   1.647   2.874
17697SOL    HW155098   7.687   1.741   2.859
17697SOL    HW255099   7.588   1.626   2.859
17698SOL     OW55100   7.931   7.971   1.337
17698SOL    HW155101   7.890   8.057   1.344
17698SOL    HW255102   7.876   7.923   1.275
17699SOL     OW55103   6.685   2.661   0.291
17699SOL    HW155104   6.757   2.723   0.279
17699SOL    HW255105   6.716   2.581   0.248
17700SOL     OW55106   5.144   6.765   0.740
17700SOL    HW155107   5.220   6.738   0.687
17700SOL    HW255108   5.068   6.737   0.688
17701SOL     OW55109   5.433   6.551  10.420
17701SOL    HW155110   5.350   6.599  10.419
17701SOL    HW255111   5.431   6.498  10.339
17702SOL     OW55112   1.722   1.681   2.256
17702SOL    HW155113   1.631   1.710   2.248
17702SOL    HW255114   1.757   1.687   2.167
17703SOL     OW55115   2.861   9.262   8.208
17703SOL    HW155116   2.886   9.329   8.144
17703SOL    HW255117   2.861   9.180   8.158
17704SOL     OW55118   1.184   2.488   4.719
17704SOL    HW155119   1.191   2.582   4.706
17704SOL    HW255120   1.103   2.476   4.767
17705SOL     OW55121   6.177   3.086   4.546
17705SOL    HW155122   6.252   3.047   4.591
17705SOL    HW255123   6.103   3.030   4.571
17706SOL     OW55124   7.868   6.783   4.773
17706SOL    HW155125   7.891   6.871   4.802
17706SOL    HW255126   7.952   6.740   4.756
17707SOL     OW55127   5.763   0.905   1.935
17707SOL    HW155128   5.735   0.827   1.886
17707SOL    HW255129   5.705   0.908   2.011
17708SOL     OW55130   3.711  10.406   0.062
17708SOL    HW155131   3.799  10.443   0.072
17708SOL    HW255132   3.658  10.478   0.029
17709SOL     OW55133   7.990   4.896   6.512
17709SOL    HW155134   7.895   4.885   6.510
17709SOL    HW255135   8.007   4.967   6.450
17710SOL     OW55136   4.379   4.830   5.534
17710SOL    HW155137   4.410   4.905   5.483
17710SOL    HW255138   4.458   4.778   5.550
17711SOL     OW55139   4.156   3.546   2.798
17711SOL    HW155140   4.237   3.554   2.849
17711SOL    HW255141   4.095   3.605   2.840
17712SOL     OW55142   4.071   5.672   4.951
17712SOL    HW155143   4.138   5.603   4.960
17712SOL    HW255144   4.035   5.659   4.863
17713SOL     OW55145   9.182   3.855   6.912
17713SOL    HW155146   9.191   3.895   6.825
17713SOL    HW255147   9.261   3.881   6.959
17714SOL     OW55148   4.945   1.464   6.964
17714SOL    HW155149   5.007   1.392   6.979
17714SOL    HW255150   4.872   1.423   6.917
17715SOL     OW55151   4.236   6.071   7.808
17715SOL    HW155152   4.270   6.002   7.750
17715SOL    HW255153   4.268   6.048   7.895
17716SOL     OW55154  10.815  10.091   9.515
17716SOL    HW155155  10.903  10.053   9.518
17716SOL    HW255156  10.817  10.149   9.439
17717SOL     OW55157   7.802   7.430   3.186
17717SOL    HW155158   7.739   7.432   3.258
17717SOL    HW255159   7.887   7.446   3.227
17718SOL     OW55160   4.434   4.315   5.726
17718SOL    HW155161   4.454   4.221   5.724
17718SOL    HW255162   4.517   4.358   5.706
17719SOL     OW55163   2.848   5.282   4.148
17719SOL    HW155164   2.831   5.239   4.064
17719SOL    HW255165   2.789   5.357   4.149
17720SOL     OW55166   7.831   8.543   8.461
17720SOL    HW155167   7.869   8.521   8.375
17720SOL    HW255168   7.873   8.482   8.522
17721SOL     OW55169  10.067   6.178   2.502
17721SOL    HW155170  10.014   6.253   2.476
17721SOL    HW255171  10.143   6.181   2.444
17722SOL     OW55172   5.267   7.429   2.643
17722SOL    HW155173   5.219   7.392   2.717
17722SOL    HW255174   5.209   7.497   2.608
17723SOL     OW55175  10.959   1.183   9.653
17723SOL    HW155176  11.044   1.139   9.651
17723SOL    HW255177  10.921   1.165   9.567
17724SOL     OW55178   1.883   2.586   5.331
17724SOL    HW155179   1.898   2.519   5.264
17724SOL    HW255180   1.855   2.663   5.281
17725SOL     OW55181   4.341   4.775   4.707
17725SOL    HW155182   4.411   4.711   4.691
17725SOL    HW255183   4.282   4.763   4.632
17726SOL     OW55184   3.193   1.135   6.839
17726SOL    HW155185   3.152   1.088   6.911
17726SOL    HW255186   3.133   1.206   6.819
17727SOL     OW55187   7.657   2.432   2.668
17727SOL    HW155188   7.635   2.419   2.760
17727SOL    HW255189   7.686   2.523   2.662
17728SOL     OW55190   9.316   9.721   6.669
17728SOL    HW155191   9.336   9.765   6.751
17728SOL    HW255192   9.400   9.720   6.622
17729SOL     OW55193   5.043   7.390  10.014
17729SOL    HW155194   5.024   7.418   9.924
17729SOL    HW255195   5.113   7.325  10.004
17730SOL     OW55196   3.158   5.772   7.037
17730SOL    HW155197   3.214   5.701   7.003
17730SOL    HW255198   3.176   5.846   6.979
17731SOL     OW55199   1.535   1.714   6.059
17731SOL    HW155200   1.553   1.708   5.965
17731SOL    HW255201   1.441   1.700   6.066
17732SOL     OW55202   8.585   7.378   2.168
17732SOL    HW155203   8.622   7.461   2.139
17732SOL    HW255204   8.577   7.327   2.087
17733SOL     OW55205   6.227   7.516   4.491
17733SOL    HW155206   6.210   7.435   4.441
17733SOL    HW255207   6.174   7.507   4.570
17734SOL     OW55208   5.600   2.818   6.328
17734SOL    HW155209   5.537   2.746   6.337
17734SOL    HW255210   5.593   2.845   6.236
17735SOL     OW55211   6.190   4.393   6.603
17735SOL    HW155212   6.258   4.452   6.571
17735SOL    HW255213   6.236   4.312   6.625
17736SOL     OW55214   3.511   1.827   1.308
17736SOL    HW155215   3.528   1.903   1.363
17736SOL    HW255216   3.598   1.793   1.287
17737SOL     OW55217   0.292   1.057   9.150
17737SOL    HW155218   0.214   1.097   9.110
17737SOL    HW255219   0.278   1.066   9.244
17738SOL     OW55220  10.862   0.122   7.652
17738SOL    HW155221  10.862   0.217   7.653
17738SOL    HW255222  10.953   0.098   7.635
17739SOL     OW55223   0.246   0.256   7.829
17739SOL    HW155224   0.214   0.272   7.740
17739SOL    HW255225   0.339   0.275   7.824
17740SOL     OW55226   3.944   5.903   3.995
17740SOL    HW155227   3.989   5.969   3.942
17740SOL    HW255228   4.014   5.862   4.046
17741SOL     OW55229   4.698   8.825   5.359
17741SOL    HW155230   4.654   8.742   5.338
17741SOL    HW255231   4.647   8.892   5.313
17742SOL     OW55232   7.997   1.329   9.378
17742SOL    HW155233   8.076   1.285   9.409
17742SOL    HW255234   7.970   1.278   9.301
17743SOL     OW55235   8.327   3.411   8.360
17743SOL    HW155236   8.278   3.353   8.301
17743SOL    HW255237   8.398   3.445   8.306
17744SOL     OW55238   6.579   6.263   9.944
17744SOL    HW155239   6.486   6.283   9.930
17744SOL    HW255240   6.622   6.292   9.863
17745SOL     OW55241   4.372   3.489   3.053
17745SOL    HW155242   4.282   3.461   3.073
17745SOL    HW255243   4.369   3.584   3.056
17746SOL     OW55244   2.865   6.271   5.524
17746SOL    HW155245   2.785   6.297   5.478
17746SOL    HW255246   2.935   6.284   5.460
17747SOL     OW55247   6.281   4.798   8.356
17747SOL    HW155248   6.374   4.788   8.379
17747SOL    HW255249   6.246   4.709   8.361
17748SOL     OW55250   6.391   6.259   4.197
17748SOL    HW155251   6.423   6.188   4.252
17748SOL    HW255252   6.335   6.311   4.254
17749SOL     OW55253   5.383   1.551   9.805
17749SOL    HW155254   5.411   1.614   9.738
17749SOL    HW255255   5.334   1.485   9.756
17750SOL     OW55256   1.849   0.996   5.308
17750SOL    HW155257   1.904   0.975   5.384
17750SOL    HW255258   1.880   0.936   5.239
17751SOL     OW55259   3.488   4.378   3.765
17751SOL    HW155260   3.471   4.465   3.729
17751SOL    HW255261   3.469   4.386   3.858
17752SOL     OW55262   8.538   4.301   1.176
17752SOL    HW155263   8.528   4.273   1.084
17752SOL    HW255264   8.546   4.219   1.224
17753SOL     OW55265   0.291  10.736   7.682
17753SOL    HW155266   0.381  10.753   7.656
17753SOL    HW255267   0.284  10.772   7.770
17754SOL     OW55268   3.893   4.991   3.872
17754SOL    HW155269   3.821   4.969   3.930
17754SOL    HW255270   3.900   5.086   3.876
17755SOL     OW55271   9.094   3.391   0.010
17755SOL    HW155272   9.056   3.396  -0.077
17755SOL    HW255273   9.186   3.369  -0.005
17756SOL     OW55274   1.722   5.176   5.034
17756SOL    HW155275   1.785   5.134   4.974
17756SOL    HW255276   1.640   5.129   5.018
17757SOL     OW55277   3.196  10.320   6.138
17757SOL    HW155278   3.275  10.333   6.086
17757SOL    HW255279   3.187  10.225   6.145
17758SOL     OW55280   0.237   3.120   8.594
17758SOL    HW155281   0.207   3.203   8.629
17758SOL    HW255282   0.271   3.141   8.507
17759SOL     OW55283   7.197   0.706  10.925
17759SOL    HW155284   7.156   0.770  10.867
17759SOL    HW255285   7.291   0.724  10.919
17760SOL     OW55286   2.647   8.188   9.257
17760SOL    HW155287   2.660   8.272   9.212
17760SOL    HW255288   2.647   8.209   9.350
17761SOL     OW55289   1.696   4.588   4.636
17761SOL    HW155290   1.734   4.539   4.563
17761SOL    HW255291   1.630   4.644   4.595
17762SOL     OW55292   8.560   1.185   9.264
17762SOL    HW155293   8.522   1.120   9.204
17762SOL    HW255294   8.654   1.182   9.244
17763SOL     OW55295  10.581   9.492   7.118
17763SOL    HW155296  10.584   9.586   7.134
17763SOL    HW255297  10.553   9.484   7.026
17764SOL     OW55298   0.256   4.233   1.712
17764SOL    HW155299   0.341   4.265   1.742
17764SOL    HW255300   0.277   4.173   1.640
17765SOL     OW55301   2.893   1.863   7.922
17765SOL    HW155302   2.889   1.913   7.840
17765SOL    HW255303   2.847   1.917   7.986
17766SOL     OW55304   3.352   6.573   6.412
17766SOL    HW155305   3.297   6.629   6.357
17766SOL    HW255306   3.428   6.554   6.357
17767SOL     OW55307   5.364   5.324   6.186
17767SOL    HW155308   5.450   5.293   6.157
17767SOL    HW255309   5.305   5.250   6.168
17768SOL     OW55310   6.468   2.115   3.799
17768SOL    HW155311   6.526   2.191   3.803
17768SOL    HW255312   6.519   2.049   3.751
17769SOL     OW55313   3.063   4.372   7.009
17769SOL    HW155314   3.154   4.377   6.979
17769SOL    HW255315   3.021   4.449   6.972
17770SOL     OW55316   1.985   0.274  11.070
17770SOL    HW155317   1.941   0.200  11.111
17770SOL    HW255318   1.919   0.343  11.067
17771SOL     OW55319   7.343   8.229   6.745
17771SOL    HW155320   7.407   8.299   6.734
17771SOL    HW255321   7.268   8.256   6.692
17772SOL     OW55322   5.223   4.052   1.670
17772SOL    HW155323   5.202   3.966   1.708
17772SOL    HW255324   5.302   4.081   1.716
17773SOL     OW55325   4.879   5.565   5.480
17773SOL    HW155326   4.869   5.509   5.557
17773SOL    HW255327   4.967   5.601   5.487
17774SOL     OW55328   2.576   1.748   5.236
17774SOL    HW155329   2.535   1.820   5.189
17774SOL    HW255330   2.526   1.670   5.209
17775SOL     OW55331   5.577   2.823  10.358
17775SOL    HW155332   5.651   2.883  10.369
17775SOL    HW255333   5.579   2.800  10.265
17776SOL     OW55334   0.839   6.510   4.018
17776SOL    HW155335   0.777   6.446   4.054
17776SOL    HW255336   0.925   6.479   4.048
17777SOL     OW55337   5.698   2.926   3.397
17777SOL    HW155338   5.696   3.010   3.352
17777SOL    HW255339   5.738   2.944   3.482
17778SOL     OW55340   7.315   4.016   6.238
17778SOL    HW155341   7.377   4.082   6.207
17778SOL    HW255342   7.229   4.056   6.228
17779SOL     OW55343   7.730   3.342   8.559
17779SOL    HW155344   7.809   3.326   8.507
17779SOL    HW255345   7.728   3.436   8.572
17780SOL     OW55346   5.513   2.572   6.235
17780SOL    HW155347   5.495   2.645   6.176
17780SOL    HW255348   5.547   2.503   6.177
17781SOL     OW55349   5.799   7.874   1.237
17781SOL    HW155350   5.889   7.887   1.208
17781SOL    HW255351   5.750   7.946   1.197
17782SOL     OW55352   0.311   6.232   4.446
17782SOL    HW155353   0.242   6.165   4.443
17782SOL    HW255354   0.270   6.309   4.407
17783SOL     OW55355   4.634   7.823   8.706
17783SOL    HW155356   4.576   7.824   8.629
17783SOL    HW255357   4.712   7.775   8.676
17784SOL     OW55358   4.625   3.722   2.532
17784SOL    HW155359   4.563   3.677   2.589
17784SOL    HW255360   4.675   3.651   2.491
17785SOL     OW55361   5.305   4.323   5.718
17785SOL    HW155362   5.234   4.271   5.681
17785SOL    HW255363   5.266   4.408   5.738
17786SOL     OW55364   6.120   7.435   7.484
17786SOL    HW155365   6.110   7.518   7.531
17786SOL    HW255366   6.214   7.416   7.488
17787SOL     OW55367   1.799   5.614   2.234
17787SOL    HW155368   1.743   5.646   2.163
17787SOL    HW255369   1.848   5.541   2.195
17788SOL     OW55370   8.890   8.671   5.470
17788SOL    HW155371   8.979   8.686   5.503
17788SOL    HW255372   8.902   8.613   5.394
17789SOL     OW55373   6.675   2.955   3.153
17789SOL    HW155374   6.708   2.870   3.182
17789SOL    HW255375   6.726   2.975   3.074
17790SOL     OW55376   3.284   3.094   8.723
17790SOL    HW155377   3.207   3.144   8.748
17790SOL    HW255378   3.249   3.021   8.671
17791SOL     OW55379   6.838  10.913   8.916
17791SOL    HW155380   6.889  10.848   8.964
17791SOL    HW255381   6.792  10.963   8.983
17792SOL     OW55382   4.276   1.944   3.875
17792SOL    HW155383   4.259   1.881   3.804
17792SOL    HW255384   4.267   1.892   3.955
17793SOL     OW55385   3.043   7.639   2.147
17793SOL    HW155386   3.062   7.731   2.166
17793SOL    HW255387   2.948   7.631   2.159
17794SOL     OW55388   8.442  10.837   6.294
17794SOL    HW155389   8.472  10.821   6.383
17794SOL    HW255390   8.511  10.891   6.255
17795SOL     OW55391   4.210   7.044   5.399
17795SOL    HW155392   4.186   7.133   5.421
17795SOL    HW255393   4.163   7.026   5.317
17796SOL     OW55394   9.659   5.930   2.812
17796SOL    HW155395   9.710   5.849   2.805
17796SOL    HW255396   9.692   5.972   2.891
17797SOL     OW55397   9.010   0.092   9.961
17797SOL    HW155398   8.979   0.166   9.910
17797SOL    HW255399   9.060   0.039   9.898
17798SOL     OW55400   5.375   5.377   4.310
17798SOL    HW155401   5.366   5.462   4.266
17798SOL    HW255402   5.345   5.392   4.399
17799SOL     OW55403   3.337   0.053   3.745
17799SOL    HW155404   3.301   0.140   3.728
17799SOL    HW255405   3.284  -0.006   3.691
17800SOL     OW55406   3.724   3.073   8.328
17800SOL    HW155407   3.722   3.129   8.251
17800SOL    HW255408   3.757   2.989   8.295
17801SOL     OW55409   9.272   4.798   7.126
17801SOL    HW155410   9.196   4.740   7.134
17801SOL    HW255411   9.326   4.757   7.058
17802SOL     OW55412   9.825   2.766   7.220
17802SOL    HW155413   9.869   2.846   7.192
17802SOL    HW255414   9.753   2.755   7.158
17803SOL     OW55415   5.427   6.853   4.173
17803SOL    HW155416   5.350   6.836   4.227
17803SOL    HW255417   5.458   6.939   4.201
17804SOL     OW55418   3.881   7.077   1.086
17804SOL    HW155419   3.930   7.154   1.059
17804SOL    HW255420   3.790   7.106   1.091
17805SOL     OW55421   3.683   5.130   3.287
17805SOL    HW155422   3.636   5.047   3.296
17805SOL    HW255423   3.714   5.130   3.196
17806SOL     OW55424   8.827   9.773   8.953
17806SOL    HW155425   8.766   9.831   8.907
17806SOL    HW255426   8.910   9.785   8.907
17807SOL     OW55427   1.900   5.190   9.933
17807SOL    HW155428   1.840   5.128   9.974
17807SOL    HW255429   1.920   5.253  10.002
17808SOL     OW55430   4.113   5.754   4.146
17808SOL    HW155431   4.188   5.809   4.169
17808SOL    HW255432   4.074   5.729   4.230
17809SOL     OW55433   2.913   3.247   2.357
17809SOL    HW155434   2.938   3.331   2.394
17809SOL    HW255435   2.944   3.250   2.266
17810SOL     OW55436   8.687   1.217   5.680
17810SOL    HW155437   8.771   1.209   5.726
17810SOL    HW255438   8.669   1.311   5.679
17811SOL     OW55439  10.111   0.567   2.282
17811SOL    HW155440  10.101   0.650   2.329
17811SOL    HW255441  10.142   0.505   2.348
17812SOL     OW55442   3.283   5.279   2.920
17812SOL    HW155443   3.369   5.319   2.909
17812SOL    HW255444   3.273   5.268   3.014
17813SOL     OW55445   2.975  10.288  10.527
17813SOL    HW155446   2.957  10.197  10.550
17813SOL    HW255447   2.978  10.334  10.610
17814SOL     OW55448   5.530  10.541   7.739
17814SOL    HW155449   5.514  10.448   7.757
17814SOL    HW255450   5.621  10.555   7.765
17815SOL     OW55451   7.567   2.553   4.034
17815SOL    HW155452   7.641   2.510   4.076
17815SOL    HW255453   7.593   2.562   3.942
17816SOL     OW55454   2.466   7.746   2.995
17816SOL    HW155455   2.406   7.672   2.984
17816SOL    HW255456   2.474   7.783   2.907
17817SOL     OW55457  10.161   3.046   9.655
17817SOL    HW155458  10.142   3.122   9.600
17817SOL    HW255459  10.080   2.995   9.653
17818SOL     OW55460  10.838   5.423   2.028
17818SOL    HW155461  10.776   5.417   1.955
17818SOL    HW255462  10.816   5.505   2.071
17819SOL     OW55463   0.901   5.046   4.451
17819SOL    HW155464   0.952   5.004   4.381
17819SOL    HW255465   0.833   4.982   4.472
17820SOL     OW55466   4.927   5.880   3.769
17820SOL    HW155467   4.923   5.808   3.706
17820SOL    HW255468   4.915   5.838   3.854
17821SOL     OW55469   7.599   7.669   3.978
17821SOL    HW155470   7.520   7.713   3.947
17821SOL    HW255471   7.658   7.740   4.003
17822SOL     OW55472   6.887   2.483   4.767
17822SOL    HW155473   6.887   2.578   4.777
17822SOL    HW255474   6.926   2.468   4.681
17823SOL     OW55475   8.032   3.905   1.560
17823SOL    HW155476   8.106   3.942   1.512
17823SOL    HW255477   8.062   3.818   1.586
17824SOL     OW55478  10.335   0.866   6.029
17824SOL    HW155479  10.382   0.880   6.111
17824SOL    HW255480  10.397   0.817   5.973
17825SOL     OW55481  10.600  11.010   4.148
17825SOL    HW155482  10.543  10.984   4.220
17825SOL    HW255483  10.687  10.981   4.174
17826SOL     OW55484   5.351   3.559   3.352
17826SOL    HW155485   5.270   3.527   3.391
17826SOL    HW255486   5.326   3.640   3.308
17827SOL     OW55487   2.800   3.163  10.829
17827SOL    HW155488   2.866   3.228  10.853
17827SOL    HW255489   2.849   3.096  10.781
17828SOL     OW55490   7.801   1.477   0.897
17828SOL    HW155491   7.803   1.555   0.951
17828SOL    HW255492   7.893   1.450   0.890
17829SOL     OW55493  10.432   4.795   1.146
17829SOL    HW155494  10.521   4.804   1.111
17829SOL    HW255495  10.383   4.752   1.075
17830SOL     OW55496   6.808   4.696   5.069
17830SOL    HW155497   6.865   4.621   5.053
17830SOL    HW255498   6.862   4.757   5.120
17831SOL     OW55499   6.189   0.512   7.633
17831SOL    HW155500   6.145   0.453   7.571
17831SOL    HW255501   6.178   0.599   7.594
17832SOL     OW55502  10.491   0.771   3.502
17832SOL    HW155503  10.418   0.719   3.535
17832SOL    HW255504  10.496   0.749   3.409
17833SOL     OW55505   6.254   7.398   2.147
17833SOL    HW155506   6.176   7.355   2.181
17833SOL    HW255507   6.271   7.469   2.208
17834SOL     OW55508   7.118   4.894   1.289
17834SOL    HW155509   7.131   4.953   1.215
17834SOL    HW255510   7.024   4.893   1.303
17835SOL     OW55511   1.638   1.311   9.667
17835SOL    HW155512   1.596   1.263   9.595
17835SOL    HW255513   1.566   1.353   9.714
17836SOL     OW55514   1.605   0.494   1.195
17836SOL    HW155515   1.618   0.439   1.118
17836SOL    HW255516   1.510   0.501   1.204
17837SOL     OW55517   9.968   8.417  10.641
17837SOL    HW155518  10.036   8.445  10.580
17837SOL    HW255519  10.012   8.415  10.726
17838SOL     OW55520   6.641   2.377   3.132
17838SOL    HW155521   6.689   2.402   3.053
17838SOL    HW255522   6.687   2.299   3.163
17839SOL     OW55523  10.463   4.352   7.404
17839SOL    HW155524  10.550   4.369   7.367
17839SOL    HW255525  10.451   4.419   7.471
17840SOL     OW55526   6.214   1.282   9.396
17840SOL    HW155527   6.120   1.262   9.396
17840SOL    HW255528   6.240   1.273   9.304
17841SOL     OW55529   8.274   2.337   0.591
17841SOL    HW155530   8.307   2.284   0.518
17841SOL    HW255531   8.292   2.284   0.669
17842SOL     OW55532   8.366   5.890  10.377
17842SOL    HW155533   8.351   5.827  10.448
17842SOL    HW255534   8.362   5.975  10.419
17843SOL     OW55535   3.812   3.446   7.012
17843SOL    HW155536   3.793   3.353   6.995
17843SOL    HW255537   3.745   3.494   6.963
17844SOL     OW55538   5.898   4.438   6.244
17844SOL    HW155539   5.934   4.419   6.157
17844SOL    HW255540   5.825   4.497   6.227
17845SOL     OW55541   6.850   6.008   2.111
17845SOL    HW155542   6.809   6.019   2.025
17845SOL    HW255543   6.827   5.919   2.137
17846SOL     OW55544   2.106   8.623   4.138
17846SOL    HW155545   2.113   8.658   4.049
17846SOL    HW255546   2.095   8.700   4.193
17847SOL     OW55547   9.304   4.643   4.085
17847SOL    HW155548   9.261   4.625   4.001
17847SOL    HW255549   9.323   4.737   4.082
17848SOL     OW55550   5.955   6.954  10.867
17848SOL    HW155551   5.912   6.883  10.915
17848SOL    HW255552   5.883   7.001  10.825
17849SOL     OW55553   5.833   3.947   8.717
17849SOL    HW155554   5.860   3.971   8.805
17849SOL    HW255555   5.915   3.945   8.667
17850SOL     OW55556   5.221   5.150   5.595
17850SOL    HW155557   5.243   5.234   5.556
17850SOL    HW255558   5.284   5.089   5.556
17851SOL     OW55559   7.156   2.251   4.622
17851SOL    HW155560   7.106   2.331   4.609
17851SOL    HW255561   7.171   2.246   4.716
17852SOL     OW55562   9.714   3.208   0.371
17852SOL    HW155563   9.683   3.118   0.361
17852SOL    HW255564   9.637   3.262   0.354
17853SOL     OW55565   3.533  10.951   4.771
17853SOL    HW155566   3.567  10.862   4.767
17853SOL    HW255567   3.606  11.006   4.741
17854SOL     OW55568   2.073   7.999  10.384
17854SOL    HW155569   2.093   7.909  10.356
17854SOL    HW255570   1.988   8.018  10.344
17855SOL     OW55571   6.686   3.641   4.616
17855SOL    HW155572   6.730   3.713   4.661
17855SOL    HW255573   6.755   3.575   4.602
17856SOL     OW55574   6.318   5.917   5.674
17856SOL    HW155575   6.380   5.984   5.645
17856SOL    HW255576   6.263   5.900   5.597
17857SOL     OW55577   3.952   5.171   8.012
17857SOL    HW155578   4.041   5.152   7.982
17857SOL    HW255579   3.945   5.125   8.095
17858SOL     OW55580  10.568   2.950   8.426
17858SOL    HW155581  10.516   2.925   8.502
17858SOL    HW255582  10.656   2.964   8.460
17859SOL     OW55583   0.831   0.875   4.958
17859SOL    HW155584   0.860   0.883   5.049
17859SOL    HW255585   0.780   0.794   4.956
17860SOL     OW55586   4.039   5.726   3.470
17860SOL    HW155587   4.061   5.633   3.467
17860SOL    HW255588   4.020   5.748   3.379
17861SOL     OW55589   4.569   4.640   4.646
17861SOL    HW155590   4.597   4.548   4.653
17861SOL    HW255591   4.631   4.688   4.701
17862SOL     OW55592   7.025   4.389   9.747
17862SOL    HW155593   7.017   4.454   9.677
17862SOL    HW255594   6.961   4.417   9.812
17863SOL     OW55595   8.394   7.111   8.439
17863SOL    HW155596   8.472   7.095   8.385
17863SOL    HW255597   8.404   7.052   8.513
17864SOL     OW55598   4.254   7.926   7.456
17864SOL    HW155599   4.265   7.834   7.480
17864SOL    HW255600   4.214   7.966   7.533
17865SOL     OW55601   0.878   6.813   3.893
17865SOL    HW155602   0.810   6.763   3.847
17865SOL    HW255603   0.834   6.846   3.971
17866SOL     OW55604   1.394   4.778   5.972
17866SOL    HW155605   1.313   4.824   5.950
17866SOL    HW255606   1.458   4.847   5.989
17867SOL     OW55607   5.753   3.305   1.725
17867SOL    HW155608   5.748   3.224   1.776
17867SOL    HW255609   5.674   3.304   1.671
17868SOL     OW55610   7.260   3.033   9.882
17868SOL    HW155611   7.264   3.108   9.941
17868SOL    HW255612   7.322   3.054   9.812
17869SOL     OW55613   5.714   9.954   6.140
17869SOL    HW155614   5.670  10.028   6.181
17869SOL    HW255615   5.764   9.992   6.068
17870SOL     OW55616   5.846   4.681   2.024
17870SOL    HW155617   5.758   4.708   1.998
17870SOL    HW255618   5.872   4.618   1.957
17871SOL     OW55619   9.802   5.433   4.240
17871SOL    HW155620   9.882   5.432   4.293
17871SOL    HW255621   9.732   5.413   4.301
17872SOL     OW55622   0.759   0.854   0.941
17872SOL    HW155623   0.774   0.797   1.016
17872SOL    HW255624   0.687   0.813   0.893
17873SOL     OW55625   9.965   6.777   4.076
17873SOL    HW155626   9.882   6.806   4.038
17873SOL    HW255627   9.940   6.723   4.151
17874SOL     OW55628   2.570   2.292   5.078
17874SOL    HW155629   2.500   2.354   5.098
17874SOL    HW255630   2.545   2.255   4.993
17875SOL     OW55631  10.468   0.293   1.561
17875SOL    HW155632  10.560   0.298   1.588
17875SOL    HW255633  10.472   0.265   1.469
17876SOL     OW55634   5.696   2.971   3.693
17876SOL    HW155635   5.761   2.950   3.760
17876SOL    HW255636   5.643   3.040   3.731
17877SOL     OW55637   9.664   0.559   2.634
17877SOL    HW155638   9.744   0.605   2.607
17877SOL    HW255639   9.619   0.540   2.552
17878SOL     OW55640   6.946   5.246   7.016
17878SOL    HW155641   6.879   5.306   6.985
17878SOL    HW255642   7.027   5.296   7.012
17879SOL     OW55643   4.133   5.889   8.870
17879SOL    HW155644   4.113   5.978   8.843
17879SOL    HW255645   4.178   5.898   8.954
17880SOL     OW55646   2.334   4.438   2.783
17880SOL    HW155647   2.381   4.363   2.745
17880SOL    HW255648   2.373   4.514   2.741
17881SOL     OW55649   6.603  10.307  -0.005
17881SOL    HW155650   6.560  10.247   0.057
17881SOL    HW255651   6.628  10.382   0.048
17882SOL     OW55652   8.528   7.056   6.088
17882SOL    HW155653   8.601   7.008   6.127
17882SOL    HW255654   8.458   7.052   6.153
17883SOL     OW55655   4.160   2.844   1.719
17883SOL    HW155656   4.092   2.910   1.706
17883SOL    HW255657   4.142   2.777   1.653
17884SOL     OW55658   3.853   0.851   7.089
17884SOL    HW155659   3.800   0.915   7.042
17884SOL    HW255660   3.806   0.768   7.078
17885SOL     OW55661   6.691   4.326   0.406
17885SOL    HW155662   6.686   4.394   0.339
17885SOL    HW255663   6.604   4.323   0.445
17886SOL     OW55664   5.255   6.002   6.423
17886SOL    HW155665   5.166   6.023   6.396
17886SOL    HW255666   5.252   5.998   6.518
17887SOL     OW55667   0.114   8.185   2.497
17887SOL    HW155668   0.155   8.193   2.583
17887SOL    HW255669   0.123   8.092   2.475
17888SOL     OW55670   7.930   3.733   9.802
17888SOL    HW155671   8.007   3.707   9.752
17888SOL    HW255672   7.962   3.745   9.891
17889SOL     OW55673   7.810   5.775   5.830
17889SOL    HW155674   7.759   5.801   5.753
17889SOL    HW255675   7.757   5.803   5.905
17890SOL     OW55676   3.991   8.954   1.868
17890SOL    HW155677   3.965   8.862   1.865
17890SOL    HW255678   4.081   8.954   1.835
17891SOL     OW55679   3.557   3.869   7.053
17891SOL    HW155680   3.578   3.960   7.032
17891SOL    HW255681   3.642   3.826   7.063
17892SOL     OW55682   0.874   4.194  10.156
17892SOL    HW155683   0.811   4.248  10.108
17892SOL    HW255684   0.872   4.227  10.245
17893SOL     OW55685   3.643   3.448   3.897
17893SOL    HW155686   3.722   3.393   3.899
17893SOL    HW255687   3.626   3.461   3.803
17894SOL     OW55688   3.947   3.305   2.959
17894SOL    HW155689   3.899   3.313   3.041
17894SOL    HW255690   3.993   3.388   2.949
17895SOL     OW55691   1.578   3.129   4.637
17895SOL    HW155692   1.565   3.219   4.607
17895SOL    HW255693   1.622   3.138   4.721
17896SOL     OW55694   5.111   5.973   6.673
17896SOL    HW155695   5.042   6.028   6.636
17896SOL    HW255696   5.173   6.034   6.712
17897SOL     OW55697   6.479   0.315   4.873
17897SOL    HW155698   6.524   0.246   4.922
17897SOL    HW255699   6.550   0.367   4.835
17898SOL     OW55700   8.543   5.340  10.301
17898SOL    HW155701   8.509   5.422  10.267
17898SOL    HW255702   8.638   5.351  10.300
17899SOL     OW55703   1.276   3.969   8.479
17899SOL    HW155704   1.296   3.895   8.421
17899SOL    HW255705   1.358   3.986   8.525
17900SOL     OW55706   5.621   7.325   2.409
17900SOL    HW155707   5.701   7.351   2.455
17900SOL    HW255708   5.652   7.275   2.333
17901SOL     OW55709   1.238   2.263   7.208
17901SOL    HW155710   1.254   2.260   7.113
17901SOL    HW255711   1.172   2.331   7.219
17902SOL     OW55712   1.397   5.271   4.414
17902SOL    HW155713   1.425   5.275   4.322
17902SOL    HW255714   1.337   5.196   4.417
17903SOL     OW55715   7.498   5.078   3.576
17903SOL    HW155716   7.416   5.117   3.604
17903SOL    HW255717   7.561   5.149   3.579
17904SOL     OW55718   1.278   7.020   6.613
17904SOL    HW155719   1.265   6.954   6.681
17904SOL    HW255720   1.343   7.080   6.649
17905SOL     OW55721   4.077   0.567   8.612
17905SOL    HW155722   4.042   0.650   8.581
17905SOL    HW255723   4.129   0.590   8.689
17906SOL     OW55724   1.299   9.084   7.562
17906SOL    HW155725   1.346   9.025   7.621
17906SOL    HW255726   1.351   9.164   7.561
17907SOL     OW55727   6.571   1.200   8.238
17907SOL    HW155728   6.642   1.255   8.207
17907SOL    HW255729   6.500   1.215   8.176
17908SOL     OW55730   7.430   3.405   9.422
17908SOL    HW155731   7.480   3.323   9.420
17908SOL    HW255732   7.494   3.471   9.450
17909SOL     OW55733   1.316   7.578   0.293
17909SOL    HW155734   1.254   7.539   0.231
17909SOL    HW255735   1.401   7.568   0.250
17910SOL     OW55736   0.981  10.314   5.929
17910SOL    HW155737   1.056  10.310   5.988
17910SOL    HW255738   0.989  10.398   5.885
17911SOL     OW55739   5.217   6.571   5.384
17911SOL    HW155740   5.205   6.635   5.454
17911SOL    HW255741   5.212   6.486   5.428
17912SOL     OW55742   5.928   5.844   4.253
17912SOL    HW155743   5.948   5.874   4.164
17912SOL    HW255744   6.000   5.785   4.274
17913SOL     OW55745   3.862   0.668   7.699
17913SOL    HW155746   3.839   0.575   7.687
17913SOL    HW255747   3.937   0.666   7.758
17914SOL     OW55748   1.523   2.621   6.048
17914SOL    HW155749   1.537   2.527   6.059
17914SOL    HW255750   1.452   2.642   6.108
17915SOL     OW55751   7.905   0.602   9.589
17915SOL    HW155752   7.838   0.619   9.655
17915SOL    HW255753   7.987   0.602   9.638
17916SOL     OW55754   3.466   5.744   6.979
17916SOL    HW155755   3.513   5.662   6.997
17916SOL    HW255756   3.479   5.797   7.057
17917SOL     OW55757   2.584   2.943   8.037
17917SOL    HW155758   2.548   2.901   8.115
17917SOL    HW255759   2.627   3.022   8.069
17918SOL     OW55760   5.638   1.227  10.892
17918SOL    HW155761   5.630   1.188  10.805
17918SOL    HW255762   5.571   1.295  10.894
17919SOL     OW55763   4.287   7.499   5.123
17919SOL    HW155764   4.276   7.579   5.174
17919SOL    HW255765   4.361   7.454   5.164
17920SOL     OW55766   3.031   2.449   2.582
17920SOL    HW155767   3.123   2.464   2.606
17920SOL    HW255768   3.031   2.362   2.540
17921SOL     OW55769   7.846   2.942  10.370
17921SOL    HW155770   7.940   2.931  10.353
17921SOL    HW255771   7.810   2.972  10.286
17922SOL     OW55772   4.609   3.819   6.411
17922SOL    HW155773   4.600   3.839   6.504
17922SOL    HW255774   4.572   3.731   6.402
17923SOL     OW55775   5.755   6.806  10.031
17923SOL    HW155776   5.715   6.879  10.078
17923SOL    HW255777   5.847   6.808  10.057
17924SOL     OW55778   0.315   1.948   6.222
17924SOL    HW155779   0.248   2.003   6.182
17924SOL    HW255780   0.397   1.976   6.181
17925SOL     OW55781   4.966   4.957  10.342
17925SOL    HW155782   4.982   4.918  10.255
17925SOL    HW255783   5.003   4.893  10.403
17926SOL     OW55784   7.879   4.440   7.396
17926SOL    HW155785   7.968   4.456   7.428
17926SOL    HW255786   7.872   4.344   7.393
17927SOL     OW55787   4.494   3.942   7.097
17927SOL    HW155788   4.466   3.926   7.007
17927SOL    HW255789   4.553   3.869   7.117
17928SOL     OW55790   1.943   1.102   7.955
17928SOL    HW155791   2.011   1.149   7.907
17928SOL    HW255792   1.861   1.129   7.913
17929SOL     OW55793   3.543   6.729   5.189
17929SOL    HW155794   3.473   6.695   5.244
17929SOL    HW255795   3.552   6.820   5.215
17930SOL     OW55796   1.762   0.747  10.540
17930SOL    HW155797   1.724   0.753  10.452
17930SOL    HW255798   1.723   0.820  10.587
17931SOL     OW55799   8.560   1.621   5.093
17931SOL    HW155800   8.549   1.716   5.095
17931SOL    HW255801   8.585   1.602   5.002
17932SOL     OW55802   6.782  10.775   1.009
17932SOL    HW155803   6.803  10.714   1.080
17932SOL    HW255804   6.696  10.747   0.978
17933SOL     OW55805   9.529   7.254   7.523
17933SOL    HW155806   9.600   7.221   7.468
17933SOL    HW255807   9.556   7.343   7.546
17934SOL     OW55808   9.194   3.494   9.006
17934SOL    HW155809   9.204   3.587   9.025
17934SOL    HW255810   9.192   3.452   9.092
17935SOL     OW55811   4.965   4.425   7.046
17935SOL    HW155812   4.926   4.339   7.062
17935SOL    HW255813   4.894   4.487   7.062
17936SOL     OW55814   5.201   6.082   7.716
17936SOL    HW155815   5.292   6.061   7.694
17936SOL    HW255816   5.201   6.176   7.733
17937SOL     OW55817  10.508   3.910   6.764
17937SOL    HW155818  10.579   3.971   6.782
17937SOL    HW255819  10.465   3.945   6.686
17938SOL     OW55820   4.912   6.308   5.992
17938SOL    HW155821   4.956   6.318   5.907
17938SOL    HW255822   4.841   6.246   5.975
17939SOL     OW55823  10.079   1.376   3.473
17939SOL    HW155824  10.107   1.397   3.384
17939SOL    HW255825  10.009   1.312   3.461
17940SOL     OW55826   1.634   8.746   9.547
17940SOL    HW155827   1.724   8.730   9.577
17940SOL    HW255828   1.597   8.658   9.536
17941SOL     OW55829   8.550   9.405   9.480
17941SOL    HW155830   8.529   9.491   9.516
17941SOL    HW255831   8.630   9.378   9.525
17942SOL     OW55832   1.104   6.160   9.913
17942SOL    HW155833   1.081   6.250   9.936
17942SOL    HW255834   1.190   6.146   9.952
17943SOL     OW55835  10.183  10.940   0.456
17943SOL    HW155836  10.096  10.902   0.463
17943SOL    HW255837  10.168  11.035   0.455
17944SOL     OW55838   0.670   4.535   8.875
17944SOL    HW155839   0.663   4.628   8.854
17944SOL    HW255840   0.764   4.520   8.886
17945SOL     OW55841   2.416   3.818   2.222
17945SOL    HW155842   2.489   3.771   2.182
17945SOL    HW255843   2.452   3.903   2.245
17946SOL     OW55844   6.890   9.968   6.931
17946SOL    HW155845   6.979   9.968   6.966
17946SOL    HW255846   6.852  10.050   6.963
17947SOL     OW55847   5.751   4.037   6.446
17947SOL    HW155848   5.798   4.109   6.488
17947SOL    HW255849   5.815   3.965   6.443
17948SOL     OW55850   4.982   2.945   8.526
17948SOL    HW155851   4.944   2.860   8.501
17948SOL    HW255852   5.036   2.969   8.451
17949SOL     OW55853   2.031   1.798   2.338
17949SOL    HW155854   1.939   1.785   2.316
17949SOL    HW255855   2.067   1.709   2.342
17950SOL     OW55856   5.018   2.531   7.034
17950SOL    HW155857   5.005   2.436   7.029
17950SOL    HW255858   5.067   2.553   6.954
17951SOL     OW55859   8.030   5.037   5.613
17951SOL    HW155860   7.940   5.051   5.642
17951SOL    HW255861   8.081   5.101   5.662
17952SOL     OW55862   5.439   9.583  10.503
17952SOL    HW155863   5.402   9.541  10.425
17952SOL    HW255864   5.453   9.510  10.564
17953SOL     OW55865  10.067   1.746   6.357
17953SOL    HW155866  10.134   1.731   6.424
17953SOL    HW255867  10.049   1.840   6.362
17954SOL     OW55868   8.354   4.587   5.474
17954SOL    HW155869   8.297   4.582   5.397
17954SOL    HW255870   8.436   4.624   5.441
17955SOL     OW55871   2.103   2.267   6.367
17955SOL    HW155872   2.099   2.362   6.355
17955SOL    HW255873   2.031   2.247   6.427
17956SOL     OW55874   3.991   3.615  10.655
17956SOL    HW155875   3.993   3.670  10.577
17956SOL    HW255876   4.013   3.674  10.727
17957SOL     OW55877   4.614   3.078   2.312
17957SOL    HW155878   4.684   3.080   2.377
17957SOL    HW255879   4.595   2.985   2.300
17958SOL     OW55880  10.360   3.823   1.504
17958SOL    HW155881  10.327   3.912   1.509
17958SOL    HW255882  10.394   3.815   1.415
17959SOL     OW55883   6.288   8.680  11.008
17959SOL    HW155884   6.350   8.735  10.960
17959SOL    HW255885   6.212   8.673  10.950
17960SOL     OW55886   3.662   5.745   9.211
17960SOL    HW155887   3.660   5.830   9.168
17960SOL    HW255888   3.617   5.758   9.294
17961SOL     OW55889   2.368   5.905   7.454
17961SOL    HW155890   2.437   5.925   7.391
17961SOL    HW255891   2.343   5.990   7.490
17962SOL     OW55892   3.217   1.339   2.202
17962SOL    HW155893   3.213   1.259   2.149
17962SOL    HW255894   3.294   1.385   2.168
17963SOL     OW55895   4.396   5.285   8.668
17963SOL    HW155896   4.408   5.359   8.609
17963SOL    HW255897   4.429   5.316   8.752
17964SOL     OW55898   5.418   3.470   9.772
17964SOL    HW155899   5.407   3.533   9.701
17964SOL    HW255900   5.486   3.410   9.740
17965SOL     OW55901   0.208   2.002   5.699
17965SOL    HW155902   0.208   1.994   5.603
17965SOL    HW255903   0.220   2.095   5.715
17966SOL     OW55904   2.579   5.521   7.837
17966SOL    HW155905   2.593   5.543   7.745
17966SOL    HW255906   2.663   5.485   7.866
17967SOL     OW55907   9.674   9.096   6.294
17967SOL    HW155908   9.646   9.116   6.383
17967SOL    HW255909   9.752   9.150   6.280
17968SOL     OW55910   9.648   2.972   3.457
17968SOL    HW155911   9.581   3.013   3.511
17968SOL    HW255912   9.650   3.024   3.377
17969SOL     OW55913   1.815   0.841   6.372
17969SOL    HW155914   1.857   0.868   6.290
17969SOL    HW255915   1.862   0.889   6.440
17970SOL     OW55916   4.996   1.657   8.260
17970SOL    HW155917   5.044   1.683   8.338
17970SOL    HW255918   4.931   1.594   8.291
17971SOL     OW55919   5.829   6.576   7.151
17971SOL    HW155920   5.918   6.551   7.127
17971SOL    HW255921   5.789   6.601   7.068
17972SOL     OW55922   4.504   6.636  10.404
17972SOL    HW155923   4.504   6.729  10.423
17972SOL    HW255924   4.440   6.599  10.465
17973SOL     OW55925   2.709   6.836   7.791
17973SOL    HW155926   2.627   6.833   7.742
17973SOL    HW255927   2.690   6.892   7.865
17974SOL     OW55928   4.874   4.588   1.232
17974SOL    HW155929   4.850   4.623   1.318
17974SOL    HW255930   4.791   4.578   1.186
17975SOL     OW55931   4.642  10.878   7.668
17975SOL    HW155932   4.554  10.898   7.636
17975SOL    HW255933   4.667  10.955   7.719
17976SOL     OW55934  10.468   5.153   5.442
17976SOL    HW155935  10.380   5.188   5.456
17976SOL    HW255936  10.483   5.094   5.516
17977SOL     OW55937   8.146   2.796   0.149
17977SOL    HW155938   8.140   2.748   0.232
17977SOL    HW255939   8.195   2.738   0.091
17978SOL     OW55940   4.690  10.645   3.470
17978SOL    HW155941   4.695  10.681   3.558
17978SOL    HW255942   4.596  10.640   3.451
17979SOL     OW55943   6.954   5.179   9.068
17979SOL    HW155944   6.904   5.221   8.998
17979SOL    HW255945   7.042   5.216   9.059
17980SOL     OW55946   6.848   7.101   6.315
17980SOL    HW155947   6.921   7.042   6.295
17980SOL    HW255948   6.825   7.139   6.230
17981SOL     OW55949   3.507   2.758   7.931
17981SOL    HW155950   3.591   2.804   7.936
17981SOL    HW255951   3.521   2.690   7.865
17982SOL     OW55952   3.810   3.171   7.080
17982SOL    HW155953   3.786   3.177   7.172
17982SOL    HW255954   3.750   3.106   7.043
17983SOL     OW55955   6.452   4.670   6.740
17983SOL    HW155956   6.504   4.675   6.820
17983SOL    HW255957   6.449   4.760   6.707
17984SOL     OW55958   2.799   4.003   2.146
17984SOL    HW155959   2.862   3.934   2.168
17984SOL    HW255960   2.816   4.072   2.209
17985SOL     OW55961  11.052  10.926   9.954
17985SOL    HW155962  11.079  10.980  10.028
17985SOL    HW255963  11.117  10.944   9.885
17986SOL     OW55964   1.067  10.282   7.057
17986SOL    HW155965   1.155  10.247   7.069
17986SOL    HW255966   1.030  10.285   7.145
17987SOL     OW55967   4.258  10.879   4.859
17987SOL    HW155968   4.222  10.832   4.784
17987SOL    HW255969   4.268  10.969   4.828
17988SOL     OW55970   3.810   1.274  10.590
17988SOL    HW155971   3.820   1.241  10.679
17988SOL    HW255972   3.738   1.337  10.595
17989SOL     OW55973   6.420   0.489   7.390
17989SOL    HW155974   6.466   0.453   7.314
17989SOL    HW255975   6.347   0.429   7.404
17990SOL     OW55976  10.612  10.137   4.833
17990SOL    HW155977  10.657  10.211   4.873
17990SOL    HW255978  10.575  10.172   4.752
17991SOL     OW55979  10.885   8.578  10.367
17991SOL    HW155980  10.928   8.567  10.282
17991SOL    HW255981  10.792   8.567  10.348
17992SOL     OW55982   8.908   5.694   8.462
17992SOL    HW155983   8.967   5.736   8.399
17992SOL    HW255984   8.856   5.766   8.498
17993SOL     OW55985   5.829   5.228   7.860
17993SOL    HW155986   5.757   5.176   7.896
17993SOL    HW255987   5.833   5.203   7.767
17994SOL     OW55988   1.050   3.836   1.359
17994SOL    HW155989   1.094   3.848   1.275
17994SOL    HW255990   0.957   3.833   1.337
17995SOL     OW55991   4.819   3.072   9.195
17995SOL    HW155992   4.755   3.119   9.248
17995SOL    HW255993   4.795   2.980   9.204
17996SOL     OW55994   1.578   0.927   3.366
17996SOL    HW155995   1.549   0.861   3.302
17996SOL    HW255996   1.625   0.992   3.313
17997SOL     OW55997   4.631   5.732   8.120
17997SOL    HW155998   4.573   5.706   8.048
17997SOL    HW255999   4.611   5.671   8.190
17998SOL     OW56000   9.114   5.006  10.383
17998SOL    HW156001   9.180   4.938  10.397
17998SOL    HW256002   9.072   4.981  10.300
17999SOL     OW56003   6.047   5.758   0.196
17999SOL    HW156004   5.968   5.809   0.181
17999SOL    HW256005   6.062   5.765   0.291
18000SOL     OW56006   3.299   8.364   8.652
18000SOL    HW156007   3.257   8.338   8.734
18000SOL    HW256008   3.385   8.322   8.655
18001SOL     OW56009   5.301   4.260   0.725
18001SOL    HW156010   5.276   4.250   0.633
18001SOL    HW256011   5.378   4.204   0.735
18002SOL     OW56012   4.283   5.785   8.357
18002SOL    HW156013   4.189   5.801   8.356
18002SOL    HW256014   4.298   5.726   8.283
18003SOL     OW56015  10.244   1.493   8.385
18003SOL    HW156016  10.279   1.433   8.451
18003SOL    HW256017  10.240   1.440   8.305
18004SOL     OW56018   5.459   0.138   0.949
18004SOL    HW156019   5.419   0.182   1.024
18004SOL    HW256020   5.548   0.116   0.978
18005SOL     OW56021   2.591   5.413   3.022
18005SOL    HW156022   2.652   5.415   3.095
18005SOL    HW256023   2.520   5.472   3.048
18006SOL     OW56024   9.734   1.426   2.884
18006SOL    HW156025   9.797   1.468   2.825
18006SOL    HW256026   9.737   1.333   2.859
18007SOL     OW56027   5.291   3.284   7.823
18007SOL    HW156028   5.222   3.260   7.761
18007SOL    HW256029   5.244   3.319   7.898
18008SOL     OW56030   5.098   5.721   1.378
18008SOL    HW156031   5.093   5.638   1.331
18008SOL    HW256032   5.191   5.741   1.381
18009SOL     OW56033   2.276   7.326   7.544
18009SOL    HW156034   2.262   7.405   7.492
18009SOL    HW256035   2.203   7.268   7.521
18010SOL     OW56036   9.628   0.506   1.454
18010SOL    HW156037   9.654   0.414   1.444
18010SOL    HW256038   9.536   0.507   1.427
18011SOL     OW56039   4.937   3.330   9.026
18011SOL    HW156040   4.958   3.246   9.068
18011SOL    HW256041   5.022   3.371   9.011
18012SOL     OW56042   0.400   6.471   9.050
18012SOL    HW156043   0.477   6.472   9.106
18012SOL    HW256044   0.434   6.463   8.961
18013SOL     OW56045   6.761   4.895   3.675
18013SOL    HW156046   6.713   4.861   3.750
18013SOL    HW256047   6.810   4.969   3.709
18014SOL     OW56048   9.953  10.306   5.049
18014SOL    HW156049   9.893  10.332   4.979
18014SOL    HW256050   9.941  10.372   5.117
18015SOL     OW56051   0.779  10.456   9.923
18015SOL    HW156052   0.804  10.465   9.831
18015SOL    HW256053   0.856  10.419   9.965
18016SOL     OW56054   6.295   3.703   7.745
18016SOL    HW156055   6.240   3.689   7.822
18016SOL    HW256056   6.238   3.683   7.671
18017SOL     OW56057   4.052   4.517   9.339
18017SOL    HW156058   4.001   4.593   9.311
18017SOL    HW256059   4.111   4.499   9.265
18018SOL     OW56060   3.361   7.504   9.115
18018SOL    HW156061   3.301   7.543   9.051
18018SOL    HW256062   3.404   7.433   9.066
18019SOL     OW56063   9.052   0.618   7.069
18019SOL    HW156064   9.103   0.621   6.988
18019SOL    HW256065   9.006   0.702   7.072
18020SOL     OW56066  10.398   7.164   6.912
18020SOL    HW156067  10.417   7.255   6.933
18020SOL    HW256068  10.472   7.135   6.859
18021SOL     OW56069   9.134   2.701  10.605
18021SOL    HW156070   9.052   2.651  10.602
18021SOL    HW256071   9.126   2.755  10.683
18022SOL     OW56072   8.513   8.066  11.058
18022SOL    HW156073   8.426   8.035  11.084
18022SOL    HW256074   8.572   7.994  11.082
18023SOL     OW56075   5.292   3.135   9.070
18023SOL    HW156076   5.271   3.167   8.982
18023SOL    HW256077   5.212   3.148   9.120
18024SOL     OW56078   8.456   9.022  10.369
18024SOL    HW156079   8.370   8.983  10.387
18024SOL    HW256080   8.445   9.114  10.390
18025SOL     OW56081  10.226   5.618   6.298
18025SOL    HW156082  10.210   5.630   6.204
18025SOL    HW256083  10.205   5.526   6.313
18026SOL     OW56084   2.928   1.105   9.619
18026SOL    HW156085   2.915   1.167   9.547
18026SOL    HW256086   2.951   1.023   9.575
18027SOL     OW56087   4.205   2.367   1.926
18027SOL    HW156088   4.163   2.404   1.848
18027SOL    HW256089   4.296   2.353   1.899
18028SOL     OW56090   3.059   8.037   7.322
18028SOL    HW156091   3.111   7.964   7.357
18028SOL    HW256092   3.109   8.068   7.246
18029SOL     OW56093   7.517   3.346   7.265
18029SOL    HW156094   7.470   3.392   7.334
18029SOL    HW256095   7.451   3.332   7.197
18030SOL     OW56096   5.565   2.700   0.868
18030SOL    HW156097   5.471   2.681   0.862
18030SOL    HW256098   5.607   2.614   0.861
18031SOL     OW56099  10.469   3.774   7.253
18031SOL    HW156100  10.493   3.863   7.277
18031SOL    HW256101  10.436   3.781   7.163
18032SOL     OW56102   4.110   5.412   0.938
18032SOL    HW156103   4.085   5.433   1.028
18032SOL    HW256104   4.027   5.402   0.891
18033SOL     OW56105   4.688   2.918   7.428
18033SOL    HW156106   4.628   2.890   7.497
18033SOL    HW256107   4.717   3.005   7.455
18034SOL     OW56108   6.759   2.986   8.438
18034SOL    HW156109   6.685   2.993   8.378
18034SOL    HW256110   6.823   2.932   8.391
18035SOL     OW56111   1.013  10.405   9.749
18035SOL    HW156112   1.077  10.364   9.807
18035SOL    HW256113   0.974  10.332   9.701
18036SOL     OW56114  10.184   4.100   7.853
18036SOL    HW156115  10.185   4.142   7.767
18036SOL    HW256116  10.270   4.118   7.890
18037SOL     OW56117   4.002   4.407  11.023
18037SOL    HW156118   4.043   4.384  11.106
18037SOL    HW256119   3.981   4.500  11.030
18038SOL     OW56120   2.108   7.872   2.576
18038SOL    HW156121   2.090   7.961   2.548
18038SOL    HW256122   2.198   7.856   2.548
18039SOL     OW56123   8.368   0.543   1.224
18039SOL    HW156124   8.378   0.624   1.273
18039SOL    HW256125   8.452   0.531   1.180
18040SOL     OW56126   7.516   7.447   9.644
18040SOL    HW156127   7.574   7.523   9.645
18040SOL    HW256128   7.435   7.479   9.604
18041SOL     OW56129   8.217   4.360  11.006
18041SOL    HW156130   8.219   4.344  10.911
18041SOL    HW256131   8.230   4.273  11.045
18042SOL     OW56132   3.332   8.908   5.960
18042SOL    HW156133   3.281   8.863   6.027
18042SOL    HW256134   3.423   8.882   5.978
18043SOL     OW56135  10.209   1.083   9.113
18043SOL    HW156136  10.140   1.019   9.095
18043SOL    HW256137  10.267   1.078   9.037
18044SOL     OW56138   5.993  10.032   8.182
18044SOL    HW156139   5.956   9.945   8.198
18044SOL    HW256140   6.078  10.030   8.226
18045SOL     OW56141   3.057   2.373  10.891
18045SOL    HW156142   2.986   2.382  10.827
18045SOL    HW256143   3.136   2.393  10.841
18046SOL     OW56144   0.220   6.091   7.519
18046SOL    HW156145   0.135   6.086   7.475
18046SOL    HW256146   0.280   6.046   7.460
18047SOL     OW56147   3.791  11.041   0.039
18047SOL    HW156148   3.754  11.044   0.128
18047SOL    HW256149   3.842  10.960   0.037
18048SOL     OW56150   6.246   0.425   3.253
18048SOL    HW156151   6.295   0.436   3.334
18048SOL    HW256152   6.282   0.345   3.214
18049SOL     OW56153   9.802   1.584   2.168
18049SOL    HW156154   9.718   1.590   2.123
18049SOL    HW256155   9.866   1.573   2.097
18050SOL     OW56156   6.694   2.071   4.230
18050SOL    HW156157   6.741   1.990   4.252
18050SOL    HW256158   6.621   2.074   4.292
18051SOL     OW56159   5.075   6.596   7.627
18051SOL    HW156160   5.121   6.678   7.612
18051SOL    HW256161   5.080   6.550   7.543
18052SOL     OW56162   7.626   8.192   0.569
18052SOL    HW156163   7.710   8.151   0.550
18052SOL    HW256164   7.589   8.139   0.639
18053SOL     OW56165   3.844   3.731   1.014
18053SOL    HW156166   3.807   3.707   0.929
18053SOL    HW256167   3.807   3.667   1.075
18054SOL     OW56168   8.780   9.693   0.536
18054SOL    HW156169   8.771   9.787   0.524
18054SOL    HW256170   8.875   9.678   0.537
18055SOL     OW56171   6.694   3.391   4.293
18055SOL    HW156172   6.782   3.394   4.331
18055SOL    HW256173   6.697   3.453   4.220
18056SOL     OW56174   1.181   4.201  10.190
18056SOL    HW156175   1.210   4.278  10.238
18056SOL    HW256176   1.088   4.215  10.176
18057SOL     OW56177   2.227   8.961   6.160
18057SOL    HW156178   2.170   9.037   6.151
18057SOL    HW256179   2.315   8.994   6.143
18058SOL     OW56180   9.762   4.801   7.767
18058SOL    HW156181   9.793   4.799   7.676
18058SOL    HW256182   9.684   4.856   7.764
18059SOL     OW56183   2.684   4.472   9.422
18059SOL    HW156184   2.669   4.563   9.397
18059SOL    HW256185   2.779   4.466   9.435
18060SOL     OW56186   9.538   8.617   2.144
18060SOL    HW156187   9.601   8.689   2.140
18060SOL    HW256188   9.577   8.554   2.204
18061SOL     OW56189   0.687   4.325   8.089
18061SOL    HW156190   0.734   4.270   8.152
18061SOL    HW256191   0.743   4.402   8.078
18062SOL     OW56192   4.843   4.568   1.633
18062SOL    HW156193   4.865   4.490   1.581
18062SOL    HW256194   4.776   4.613   1.581
18063SOL     OW56195   9.579   6.573   9.647
18063SOL    HW156196   9.615   6.484   9.643
18063SOL    HW256197   9.523   6.573   9.724
18064SOL     OW56198   7.967   4.391   6.604
18064SOL    HW156199   8.012   4.446   6.540
18064SOL    HW256200   7.965   4.304   6.563
18065SOL     OW56201   6.534   7.845   1.326
18065SOL    HW156202   6.489   7.823   1.407
18065SOL    HW256203   6.536   7.940   1.324
18066SOL     OW56204   3.036   8.790   4.221
18066SOL    HW156205   2.947   8.801   4.188
18066SOL    HW256206   3.028   8.800   4.316
18067SOL     OW56207   6.354   9.858   3.012
18067SOL    HW156208   6.338   9.794   3.081
18067SOL    HW256209   6.442   9.891   3.029
18068SOL     OW56210  10.102   3.341   0.551
18068SOL    HW156211  10.087   3.258   0.597
18068SOL    HW256212  10.051   3.333   0.470
18069SOL     OW56213   4.369   2.425   6.618
18069SOL    HW156214   4.323   2.436   6.534
18069SOL    HW256215   4.424   2.503   6.626
18070SOL     OW56216  10.789   6.962  10.255
18070SOL    HW156217  10.767   7.009  10.174
18070SOL    HW256218  10.848   6.892  10.226
18071SOL     OW56219   6.146   6.496  10.123
18071SOL    HW156220   6.178   6.559  10.187
18071SOL    HW256221   6.146   6.412  10.169
18072SOL     OW56222   1.274   9.969   3.449
18072SOL    HW156223   1.223   9.963   3.529
18072SOL    HW256224   1.325  10.049   3.458
18073SOL     OW56225   6.493   5.939   8.509
18073SOL    HW156226   6.496   5.843   8.504
18073SOL    HW256227   6.560   5.968   8.447
18074SOL     OW56228   6.070   3.859   8.607
18074SOL    HW156229   6.158   3.895   8.597
18074SOL    HW256230   6.080   3.789   8.671
18075SOL     OW56231   9.620   3.560   1.306
18075SOL    HW156232   9.550   3.525   1.360
18075SOL    HW256233   9.608   3.518   1.221
18076SOL     OW56234   5.732   0.139   0.487
18076SOL    HW156235   5.791   0.213   0.476
18076SOL    HW256236   5.685   0.156   0.568
18077SOL     OW56237   4.889  10.780  10.450
18077SOL    HW156238   4.943  10.709  10.415
18077SOL    HW256239   4.924  10.796  10.537
18078SOL     OW56240   7.650   5.348   9.254
18078SOL    HW156241   7.590   5.325   9.325
18078SOL    HW256242   7.731   5.302   9.275
18079SOL     OW56243   5.291   2.761   6.921
18079SOL    HW156244   5.359   2.694   6.915
18079SOL    HW256245   5.336   2.838   6.954
18080SOL     OW56246   1.062   5.740   5.219
18080SOL    HW156247   1.017   5.715   5.138
18080SOL    HW256248   1.092   5.657   5.256
18081SOL     OW56249   4.757   1.394   2.165
18081SOL    HW156250   4.780   1.375   2.074
18081SOL    HW256251   4.812   1.335   2.216
18082SOL     OW56252   5.658   0.689   9.858
18082SOL    HW156253   5.752   0.685   9.878
18082SOL    HW256254   5.647   0.631   9.782
18083SOL     OW56255  10.579   6.309   3.482
18083SOL    HW156256  10.618   6.396   3.487
18083SOL    HW256257  10.497   6.316   3.531
18084SOL     OW56258   6.010   2.771  10.882
18084SOL    HW156259   5.957   2.700  10.844
18084SOL    HW256260   6.099   2.753  10.850
18085SOL     OW56261   2.504   1.513   5.962
18085SOL    HW156262   2.519   1.450   5.891
18085SOL    HW256263   2.467   1.590   5.918
18086SOL     OW56264   1.347   3.511   3.274
18086SOL    HW156265   1.252   3.503   3.282
18086SOL    HW256266   1.362   3.600   3.244
18087SOL     OW56267   7.230   3.323   2.339
18087SOL    HW156268   7.230   3.237   2.296
18087SOL    HW256269   7.248   3.304   2.431
18088SOL     OW56270   3.379   2.668   7.475
18088SOL    HW156271   3.462   2.634   7.439
18088SOL    HW256272   3.343   2.722   7.404
18089SOL     OW56273   7.715   5.467   8.486
18089SOL    HW156274   7.735   5.553   8.521
18089SOL    HW256275   7.716   5.409   8.562
18090SOL     OW56276   1.226   6.235  10.858
18090SOL    HW156277   1.305   6.231  10.912
18090SOL    HW256278   1.250   6.292  10.784
18091SOL     OW56279   3.146   3.489  10.015
18091SOL    HW156280   3.232   3.491  10.057
18091SOL    HW256281   3.163   3.515   9.924
18092SOL     OW56282   1.895   1.623  11.034
18092SOL    HW156283   1.852   1.572  11.103
18092SOL    HW256284   1.825   1.676  10.996
18093SOL     OW56285   8.371   5.361   8.708
18093SOL    HW156286   8.342   5.444   8.745
18093SOL    HW256287   8.462   5.377   8.682
18094SOL     OW56288  10.889  10.632   5.081
18094SOL    HW156289  10.810  10.653   5.130
18094SOL    HW256290  10.946  10.590   5.145
18095SOL     OW56291   2.933   2.177   1.286
18095SOL    HW156292   2.902   2.127   1.210
18095SOL    HW256293   2.976   2.254   1.248
18096SOL     OW56294  10.789   3.971   8.239
18096SOL    HW156295  10.848   4.036   8.201
18096SOL    HW256296  10.712   3.972   8.182
18097SOL     OW56297   8.449   5.553   8.966
18097SOL    HW156298   8.437   5.458   8.968
18097SOL    HW256299   8.453   5.579   9.058
18098SOL     OW56300   3.011   3.747   9.566
18098SOL    HW156301   2.986   3.773   9.654
18098SOL    HW256302   3.034   3.654   9.574
18099SOL     OW56303   3.638   2.468   5.696
18099SOL    HW156304   3.611   2.498   5.609
18099SOL    HW256305   3.732   2.453   5.688
18100SOL     OW56306   2.477   8.222   6.845
18100SOL    HW156307   2.429   8.298   6.813
18100SOL    HW256308   2.414   8.174   6.898
18101SOL     OW56309   2.365   5.877   8.262
18101SOL    HW156310   2.343   5.951   8.318
18101SOL    HW256311   2.377   5.803   8.322
18102SOL     OW56312   1.673   4.908   7.871
18102SOL    HW156313   1.636   4.954   7.795
18102SOL    HW256314   1.768   4.912   7.857
18103SOL     OW56315   1.317   2.218   5.903
18103SOL    HW156316   1.307   2.143   5.962
18103SOL    HW256317   1.405   2.251   5.920
18104SOL     OW56318   6.170   7.410   8.869
18104SOL    HW156319   6.103   7.343   8.885
18104SOL    HW256320   6.243   7.385   8.926
18105SOL     OW56321   5.952   4.399   2.011
18105SOL    HW156322   5.944   4.435   2.099
18105SOL    HW256323   6.015   4.327   2.020
18106SOL     OW56324   7.758  10.158   2.943
18106SOL    HW156325   7.708  10.109   3.008
18106SOL    HW256326   7.848  10.157   2.976
18107SOL     OW56327   3.598  10.872   2.832
18107SOL    HW156328   3.658  10.890   2.904
18107SOL    HW256329   3.605  10.949   2.775
18108SOL     OW56330   8.233   2.970  10.879
18108SOL    HW156331   8.311   3.022  10.860
18108SOL    HW256332   8.176   2.984  10.803
18109SOL     OW56333   1.503  10.169   7.570
18109SOL    HW156334   1.549  10.124   7.640
18109SOL    HW256335   1.469  10.248   7.610
18110SOL     OW56336   9.313   7.263   6.688
18110SOL    HW156337   9.331   7.353   6.712
18110SOL    HW256338   9.236   7.239   6.739
18111SOL     OW56339   3.612   2.406   0.023
18111SOL    HW156340   3.584   2.319   0.052
18111SOL    HW256341   3.532   2.446  -0.011
18112SOL     OW56342   3.225   4.029   1.034
18112SOL    HW156343   3.251   4.105   1.086
18112SOL    HW256344   3.245   3.953   1.089
18113SOL     OW56345   3.823   4.288   6.870
18113SOL    HW156346   3.802   4.298   6.962
18113SOL    HW256347   3.831   4.377   6.837
18114SOL     OW56348   1.423   1.482  10.832
18114SOL    HW156349   1.406   1.526  10.915
18114SOL    HW256350   1.405   1.548  10.765
18115SOL     OW56351   3.837   1.021   6.796
18115SOL    HW156352   3.750   1.058   6.807
18115SOL    HW256353   3.826   0.952   6.730
18116SOL     OW56354   3.426   0.011   9.927
18116SOL    HW156355   3.361   0.073   9.959
18116SOL    HW256356   3.472  -0.019  10.005
18117SOL     OW56357   7.960   6.718   8.289
18117SOL    HW156358   8.009   6.761   8.219
18117SOL    HW256359   7.995   6.629   8.291
18118SOL     OW56360   2.990   9.035   1.113
18118SOL    HW156361   3.017   8.957   1.162
18118SOL    HW256362   3.020   9.018   1.023
18119SOL     OW56363   6.033   6.296   5.790
18119SOL    HW156364   6.106   6.250   5.831
18119SOL    HW256365   6.074   6.363   5.735
18120SOL     OW56366   6.885   0.328   0.701
18120SOL    HW156367   6.792   0.326   0.681
18120SOL    HW256368   6.903   0.243   0.741
18121SOL     OW56369   3.255   1.962   8.884
18121SOL    HW156370   3.203   2.038   8.910
18121SOL    HW256371   3.227   1.943   8.794
18122SOL     OW56372  10.842   9.182   6.200
18122SOL    HW156373  10.792   9.218   6.273
18122SOL    HW256374  10.867   9.258   6.148
18123SOL     OW56375   3.347   5.021   9.641
18123SOL    HW156376   3.300   4.997   9.721
18123SOL    HW256377   3.293   5.089   9.600
18124SOL     OW56378   1.663   1.176   4.108
18124SOL    HW156379   1.669   1.253   4.164
18124SOL    HW256380   1.574   1.177   4.074
18125SOL     OW56381   9.797   1.787   9.348
18125SOL    HW156382   9.789   1.739   9.430
18125SOL    HW256383   9.808   1.878   9.374
18126SOL     OW56384   0.825   5.735   8.730
18126SOL    HW156385   0.789   5.648   8.712
18126SOL    HW256386   0.868   5.726   8.815
18127SOL     OW56387   9.708   4.409   9.283
18127SOL    HW156388   9.660   4.362   9.214
18127SOL    HW256389   9.800   4.401   9.257
18128SOL     OW56390   6.007   6.498   3.760
18128SOL    HW156391   6.086   6.510   3.813
18128SOL    HW256392   6.039   6.460   3.678
18129SOL     OW56393   6.032   7.695   1.007
18129SOL    HW156394   6.079   7.761   1.058
18129SOL    HW256395   6.019   7.735   0.921
18130SOL     OW56396   7.187   3.974   7.966
18130SOL    HW156397   7.114   3.953   7.908
18130SOL    HW256398   7.173   3.919   8.043
18131SOL     OW56399   4.557   7.041   7.687
18131SOL    HW156400   4.530   6.983   7.616
18131SOL    HW256401   4.648   7.063   7.667
18132SOL     OW56402   7.185   5.890   9.969
18132SOL    HW156403   7.119   5.853   9.909
18132SOL    HW256404   7.243   5.940   9.912
18133SOL     OW56405   7.528   6.006   3.084
18133SOL    HW156406   7.517   6.042   2.996
18133SOL    HW256407   7.464   5.935   3.089
18134SOL     OW56408  10.249   4.477   8.615
18134SOL    HW156409  10.218   4.552   8.564
18134SOL    HW256410  10.303   4.427   8.553
18135SOL     OW56411   3.916   7.038   4.023
18135SOL    HW156412   3.839   7.057   3.970
18135SOL    HW256413   3.890   7.060   4.112
18136SOL     OW56414   2.385   3.179   3.005
18136SOL    HW156415   2.468   3.200   2.963
18136SOL    HW256416   2.399   3.198   3.097
18137SOL     OW56417   7.501   0.882   8.444
18137SOL    HW156418   7.518   0.928   8.526
18137SOL    HW256419   7.542   0.796   8.456
18138SOL     OW56420   9.958   7.862   6.872
18138SOL    HW156421   9.932   7.796   6.937
18138SOL    HW256422   9.918   7.832   6.790
18139SOL     OW56423   5.255   6.414   2.747
18139SOL    HW156424   5.257   6.483   2.681
18139SOL    HW256425   5.307   6.343   2.708
18140SOL     OW56426   7.150   5.661   7.853
18140SOL    HW156427   7.209   5.682   7.781
18140SOL    HW256428   7.144   5.741   7.904
18141SOL     OW56429   2.764   9.650   8.628
18141SOL    HW156430   2.759   9.619   8.537
18141SOL    HW256431   2.763   9.570   8.681
18142SOL     OW56432   6.431   1.681   6.725
18142SOL    HW156433   6.476   1.717   6.801
18142SOL    HW256434   6.389   1.756   6.683
18143SOL     OW56435   9.733   2.767  11.011
18143SOL    HW156436   9.651   2.806  10.983
18143SOL    HW256437   9.712   2.674  11.023
18144SOL     OW56438   0.473  10.904  10.665
18144SOL    HW156439   0.481  10.847  10.741
18144SOL    HW256440   0.404  10.966  10.688
18145SOL     OW56441   0.543   6.638  10.438
18145SOL    HW156442   0.538   6.644  10.342
18145SOL    HW256443   0.614   6.697  10.462
18146SOL     OW56444   6.521   1.115   8.799
18146SOL    HW156445   6.608   1.143   8.771
18146SOL    HW256446   6.532   1.091   8.891
18147SOL     OW56447   7.419   8.558   2.873
18147SOL    HW156448   7.389   8.632   2.820
18147SOL    HW256449   7.341   8.529   2.920
18148SOL     OW56450   6.411   7.580   3.696
18148SOL    HW156451   6.495   7.611   3.661
18148SOL    HW256452   6.422   7.583   3.791
18149SOL     OW56453   3.051   6.009   1.381
18149SOL    HW156454   3.125   5.987   1.438
18149SOL    HW256455   3.090   6.015   1.293
18150SOL     OW56456   5.638   4.451   0.887
18150SOL    HW156457   5.631   4.358   0.865
18150SOL    HW256458   5.732   4.466   0.900
18151SOL     OW56459   0.532  10.085   1.224
18151SOL    HW156460   0.598  10.126   1.280
18151SOL    HW256461   0.522   9.996   1.259
18152SOL     OW56462   8.802   1.567   2.077
18152SOL    HW156463   8.853   1.562   1.996
18152SOL    HW256464   8.786   1.475   2.100
18153SOL     OW56465   8.846   0.917   7.009
18153SOL    HW156466   8.808   0.923   6.921
18153SOL    HW256467   8.783   0.961   7.066
18154SOL     OW56468   6.082   3.453  10.702
18154SOL    HW156469   6.006   3.511  10.704
18154SOL    HW256470   6.108   3.444  10.793
18155SOL     OW56471   4.162   6.639   7.194
18155SOL    HW156472   4.135   6.564   7.141
18155SOL    HW256473   4.128   6.620   7.281
18156SOL     OW56474   5.947   1.518   0.902
18156SOL    HW156475   5.986   1.458   0.838
18156SOL    HW256476   5.881   1.465   0.947
18157SOL     OW56477   8.267   0.267   9.048
18157SOL    HW156478   8.200   0.329   9.077
18157SOL    HW256479   8.311   0.240   9.128
18158SOL     OW56480   4.668   4.194   6.874
18158SOL    HW156481   4.630   4.117   6.832
18158SOL    HW256482   4.712   4.241   6.803
18159SOL     OW56483   4.751   0.644   0.507
18159SOL    HW156484   4.731   0.719   0.563
18159SOL    HW256485   4.814   0.592   0.557
18160SOL     OW56486   1.482   8.497   7.618
18160SOL    HW156487   1.486   8.548   7.699
18160SOL    HW256488   1.526   8.552   7.553
18161SOL     OW56489   3.506   2.355  10.510
18161SOL    HW156490   3.446   2.426  10.491
18161SOL    HW256491   3.470   2.280  10.463
18162SOL     OW56492   0.951   3.554   8.142
18162SOL    HW156493   0.938   3.564   8.236
18162SOL    HW256494   0.921   3.465   8.123
18163SOL     OW56495   6.052   4.993   7.759
18163SOL    HW156496   6.114   4.924   7.732
18163SOL    HW256497   5.966   4.953   7.748
18164SOL     OW56498   7.616   3.778   7.862
18164SOL    HW156499   7.676   3.786   7.936
18164SOL    HW256500   7.629   3.858   7.812
18165SOL     OW56501  10.605   8.499  10.351
18165SOL    HW156502  10.570   8.416  10.319
18165SOL    HW256503  10.546   8.565  10.315
18166SOL     OW56504   6.359   6.733  11.010
18166SOL    HW156505   6.401   6.694  10.933
18166SOL    HW256506   6.296   6.667  11.039
18167SOL     OW56507   9.649   9.792   2.697
18167SOL    HW156508   9.666   9.777   2.790
18167SOL    HW256509   9.734   9.820   2.661
18168SOL     OW56510  10.149   1.584   0.639
18168SOL    HW156511  10.154   1.528   0.561
18168SOL    HW256512  10.237   1.620   0.648
18169SOL     OW56513   2.561   1.432   6.776
18169SOL    HW156514   2.557   1.341   6.807
18169SOL    HW256515   2.631   1.432   6.711
18170SOL     OW56516   0.010   3.501   7.482
18170SOL    HW156517  -0.011   3.409   7.466
18170SOL    HW256518   0.015   3.540   7.394
18171SOL     OW56519   0.847   1.992   4.333
18171SOL    HW156520   0.870   2.059   4.396
18171SOL    HW256521   0.752   1.996   4.326
18172SOL     OW56522   3.529   0.244   4.329
18172SOL    HW156523   3.603   0.279   4.280
18172SOL    HW256524   3.561   0.235   4.418
18173SOL     OW56525   7.730   6.158   9.270
18173SOL    HW156526   7.804   6.213   9.296
18173SOL    HW256527   7.740   6.148   9.175
18174SOL     OW56528   6.125   3.649   7.452
18174SOL    HW156529   6.205   3.616   7.410
18174SOL    HW256530   6.138   3.743   7.458
18175SOL     OW56531   4.285   2.933   0.949
18175SOL    HW156532   4.377   2.946   0.971
18175SOL    HW256533   4.239   3.004   0.993
18176SOL     OW56534   1.606   1.627   1.333
18176SOL    HW156535   1.679   1.687   1.346
18176SOL    HW256536   1.583   1.598   1.421
18177SOL     OW56537   6.001   4.886   6.180
18177SOL    HW156538   6.066   4.949   6.211
18177SOL    HW256539   6.018   4.878   6.086
18178SOL     OW56540   3.413  10.250   8.499
18178SOL    HW156541   3.454  10.239   8.413
18178SOL    HW256542   3.367  10.333   8.493
18179SOL     OW56543   5.405   5.617   1.913
18179SOL    HW156544   5.390   5.697   1.863
18179SOL    HW256545   5.331   5.612   1.974
18180SOL     OW56546   5.200   7.089   7.604
18180SOL    HW156547   5.157   7.043   7.532
18180SOL    HW256548   5.141   7.162   7.624
18181SOL     OW56549   6.868   3.241   4.132
18181SOL    HW156550   6.931   3.310   4.150
18181SOL    HW256551   6.843   3.207   4.218
18182SOL     OW56552   2.761   7.289   9.260
18182SOL    HW156553   2.793   7.203   9.231
18182SOL    HW256554   2.670   7.273   9.285
18183SOL     OW56555   2.136   7.550   6.970
18183SOL    HW156556   2.066   7.495   6.934
18183SOL    HW256557   2.137   7.627   6.913
18184SOL     OW56558   4.472   5.736   0.827
18184SOL    HW156559   4.385   5.700   0.812
18184SOL    HW256560   4.473   5.818   0.778
18185SOL     OW56561   5.542   1.406   0.094
18185SOL    HW156562   5.486   1.427   0.020
18185SOL    HW256563   5.514   1.466   0.163
18186SOL     OW56564   8.402   7.373   8.391
18186SOL    HW156565   8.312   7.404   8.388
18186SOL    HW256566   8.395   7.280   8.414
18187SOL     OW56567  10.866   5.342   8.213
18187SOL    HW156568  10.944   5.286   8.204
18187SOL    HW256569  10.793   5.284   8.191
18188SOL     OW56570   5.120   4.087   9.713
18188SOL    HW156571   5.165   4.125   9.637
18188SOL    HW256572   5.027   4.091   9.690
18189SOL     OW56573  10.129  10.785   4.297
18189SOL    HW156574  10.213  10.817   4.330
18189SOL    HW256575  10.100  10.852   4.235
18190SOL     OW56576   6.473   1.888   6.275
18190SOL    HW156577   6.487   1.814   6.334
18190SOL    HW256578   6.437   1.957   6.330
18191SOL     OW56579   8.171   1.302   3.775
18191SOL    HW156580   8.162   1.285   3.681
18191SOL    HW256581   8.244   1.363   3.781
18192SOL     OW56582   7.747   1.947   3.994
18192SOL    HW156583   7.753   1.953   4.089
18192SOL    HW256584   7.808   1.877   3.970
18193SOL     OW56585   4.684   5.503   3.751
18193SOL    HW156586   4.768   5.544   3.730
18193SOL    HW256587   4.700   5.409   3.736
18194SOL     OW56588   1.180   5.378   8.447
18194SOL    HW156589   1.168   5.284   8.429
18194SOL    HW256590   1.099   5.419   8.417
18195SOL     OW56591   0.959   5.966  10.864
18195SOL    HW156592   0.997   6.043  10.905
18195SOL    HW256593   0.867   5.989  10.850
18196SOL     OW56594   1.703   8.754   7.571
18196SOL    HW156595   1.762   8.779   7.500
18196SOL    HW256596   1.752   8.689   7.621
18197SOL     OW56597   4.320   5.508   9.786
18197SOL    HW156598   4.300   5.518   9.879
18197SOL    HW256599   4.311   5.596   9.749
18198SOL     OW56600   2.487   9.551   6.960
18198SOL    HW156601   2.571   9.588   6.986
18198SOL    HW256602   2.431   9.626   6.944
18199SOL     OW56603   5.055   3.468   1.149
18199SOL    HW156604   4.984   3.475   1.213
18199SOL    HW256605   5.073   3.374   1.144
18200SOL     OW56606   9.299   6.862  10.835
18200SOL    HW156607   9.274   6.847  10.926
18200SOL    HW256608   9.395   6.865  10.836
18201SOL     OW56609  10.872   5.372   4.382
18201SOL    HW156610  10.882   5.453   4.332
18201SOL    HW256611  10.805   5.392   4.446
18202SOL     OW56612   0.928   5.533   0.357
18202SOL    HW156613   0.902   5.593   0.427
18202SOL    HW256614   0.846   5.492   0.329
18203SOL     OW56615   5.405   6.774   1.511
18203SOL    HW156616   5.412   6.721   1.590
18203SOL    HW256617   5.319   6.752   1.475
18204SOL     OW56618   1.577   2.301   4.631
18204SOL    HW156619   1.544   2.337   4.713
18204SOL    HW256620   1.569   2.206   4.641
18205SOL     OW56621   6.797   9.664   1.221
18205SOL    HW156622   6.766   9.749   1.190
18205SOL    HW256623   6.725   9.604   1.203
18206SOL     OW56624   5.066   2.755   2.032
18206SOL    HW156625   5.020   2.735   2.113
18206SOL    HW256626   5.037   2.687   1.971
18207SOL     OW56627   2.920   1.287   9.423
18207SOL    HW156628   2.880   1.372   9.441
18207SOL    HW256629   2.987   1.305   9.357
18208SOL     OW56630   3.019   2.695   7.424
18208SOL    HW156631   2.942   2.751   7.427
18208SOL    HW256632   2.996   2.619   7.477
18209SOL     OW56633   5.234   5.865   0.178
18209SOL    HW156634   5.282   5.784   0.159
18209SOL    HW256635   5.207   5.856   0.270
18210SOL     OW56636   9.035   2.036   9.794
18210SOL    HW156637   9.014   2.092   9.719
18210SOL    HW256638   9.096   1.971   9.758
18211SOL     OW56639   7.858   0.402  10.767
18211SOL    HW156640   7.943   0.420  10.807
18211SOL    HW256641   7.804   0.369  10.838
18212SOL     OW56642   1.822   8.511   5.862
18212SOL    HW156643   1.815   8.605   5.850
18212SOL    HW256644   1.803   8.475   5.775
18213SOL     OW56645   4.013   5.519  10.202
18213SOL    HW156646   4.008   5.553  10.113
18213SOL    HW256647   3.964   5.437  10.199
18214SOL     OW56648   1.900   1.144   0.012
18214SOL    HW156649   1.819   1.146   0.063
18214SOL    HW256650   1.888   1.071  -0.049
18215SOL     OW56651   5.700   9.847   4.949
18215SOL    HW156652   5.705   9.754   4.972
18215SOL    HW256653   5.623   9.853   4.892
18216SOL     OW56654  10.299   1.126   8.838
18216SOL    HW156655  10.228   1.189   8.842
18216SOL    HW256656  10.379   1.179   8.836
18217SOL     OW56657  10.388   3.425   5.618
18217SOL    HW156658  10.296   3.434   5.595
18217SOL    HW256659  10.425   3.511   5.603
18218SOL     OW56660   2.470   3.119   1.208
18218SOL    HW156661   2.555   3.077   1.194
18218SOL    HW256662   2.427   3.115   1.122
18219SOL     OW56663  10.468   3.435   0.206
18219SOL    HW156664  10.428   3.400   0.126
18219SOL    HW256665  10.560   3.407   0.201
18220SOL     OW56666   2.850   8.963   8.518
18220SOL    HW156667   2.769   8.943   8.565
18220SOL    HW256668   2.837   9.052   8.485
18221SOL     OW56669   6.010   4.453   0.787
18221SOL    HW156670   5.970   4.423   0.868
18221SOL    HW256671   5.939   4.494   0.738
18222SOL     OW56672   9.750   1.792  11.044
18222SOL    HW156673   9.825   1.849  11.061
18222SOL    HW256674   9.703   1.789  11.127
18223SOL     OW56675   1.663   3.470   4.751
18223SOL    HW156676   1.614   3.518   4.817
18223SOL    HW256677   1.678   3.384   4.790
18224SOL     OW56678   3.684   4.407   6.054
18224SOL    HW156679   3.750   4.359   6.004
18224SOL    HW256680   3.733   4.446   6.126
18225SOL     OW56681   8.279  10.448   2.046
18225SOL    HW156682   8.191  10.485   2.045
18225SOL    HW256683   8.335  10.522   2.070
18226SOL     OW56684   7.362   3.380   0.472
18226SOL    HW156685   7.412   3.299   0.485
18226SOL    HW256686   7.274   3.350   0.451
18227SOL     OW56687   5.149   3.555   7.749
18227SOL    HW156688   5.202   3.513   7.681
18227SOL    HW256689   5.120   3.637   7.710
18228SOL     OW56690   3.091   3.456   9.524
18228SOL    HW156691   3.135   3.380   9.486
18228SOL    HW256692   3.023   3.419   9.580
18229SOL     OW56693   6.730   0.706   2.406
18229SOL    HW156694   6.787   0.629   2.406
18229SOL    HW256695   6.740   0.744   2.493
18230SOL     OW56696   5.367   1.603   6.455
18230SOL    HW156697   5.339   1.514   6.476
18230SOL    HW256698   5.329   1.657   6.524
18231SOL     OW56699   2.651   6.853   6.897
18231SOL    HW156700   2.682   6.904   6.971
18231SOL    HW256701   2.571   6.811   6.928
18232SOL     OW56702   5.188   8.843   1.157
18232SOL    HW156703   5.159   8.751   1.156
18232SOL    HW256704   5.146   8.882   1.080
18233SOL     OW56705   4.187   0.733   7.648
18233SOL    HW156706   4.276   0.759   7.624
18233SOL    HW256707   4.175   0.768   7.736
18234SOL     OW56708  10.439   2.648   2.442
18234SOL    HW156709  10.396   2.673   2.523
18234SOL    HW256710  10.375   2.666   2.373
18235SOL     OW56711   3.133   8.658  11.072
18235SOL    HW156712   3.196   8.602  11.118
18235SOL    HW256713   3.133   8.624  10.982
18236SOL     OW56714   3.760   8.475   4.035
18236SOL    HW156715   3.838   8.517   4.071
18236SOL    HW256716   3.725   8.538   3.972
18237SOL     OW56717   1.661   4.601   1.485
18237SOL    HW156718   1.695   4.625   1.571
18237SOL    HW256719   1.652   4.505   1.488
18238SOL     OW56720  10.036   5.866   0.877
18238SOL    HW156721  10.002   5.911   0.799
18238SOL    HW256722   9.968   5.802   0.899
18239SOL     OW56723   9.420   1.423  10.095
18239SOL    HW156724   9.471   1.488  10.047
18239SOL    HW256725   9.331   1.435  10.063
18240SOL     OW56726   9.345   7.143   8.701
18240SOL    HW156727   9.431   7.174   8.728
18240SOL    HW256728   9.339   7.055   8.738
18241SOL     OW56729   6.954   2.560   1.216
18241SOL    HW156730   6.931   2.560   1.123
18241SOL    HW256731   6.876   2.527   1.260
18242SOL     OW56732   7.306   6.381   9.715
18242SOL    HW156733   7.307   6.318   9.787
18242SOL    HW256734   7.213   6.398   9.699
18243SOL     OW56735   3.447   3.257   0.831
18243SOL    HW156736   3.465   3.167   0.860
18243SOL    HW256737   3.463   3.255   0.736
18244SOL     OW56738   8.416  10.944   9.778
18244SOL    HW156739   8.480  10.886   9.735
18244SOL    HW256740   8.333  10.898   9.770
18245SOL     OW56741   2.532   5.513   4.952
18245SOL    HW156742   2.504   5.558   4.872
18245SOL    HW256743   2.570   5.581   5.006
18246SOL     OW56744   5.976   6.039   1.149
18246SOL    HW156745   5.942   5.949   1.145
18246SOL    HW256746   5.999   6.060   1.058
18247SOL     OW56747   5.413   2.317   7.183
18247SOL    HW156748   5.381   2.264   7.110
18247SOL    HW256749   5.386   2.269   7.261
18248SOL     OW56750   3.506  10.349   2.090
18248SOL    HW156751   3.473  10.404   2.161
18248SOL    HW256752   3.440  10.280   2.081
18249SOL     OW56753   9.493   5.516   9.425
18249SOL    HW156754   9.458   5.589   9.475
18249SOL    HW256755   9.550   5.557   9.360
18250SOL     OW56756   2.863   7.903   9.305
18250SOL    HW156757   2.911   7.975   9.264
18250SOL    HW256758   2.926   7.863   9.365
18251SOL     OW56759   5.904   2.528   4.562
18251SOL    HW156760   5.973   2.463   4.575
18251SOL    HW256761   5.836   2.481   4.514
18252SOL     OW56762   5.830   0.288   2.933
18252SOL    HW156763   5.872   0.204   2.911
18252SOL    HW256764   5.871   0.314   3.015
18253SOL     OW56765   9.956   1.010   8.620
18253SOL    HW156766   9.896   0.974   8.555
18253SOL    HW256767   9.906   1.078   8.663
18254SOL     OW56768   1.214   7.416   0.058
18254SOL    HW156769   1.190   7.504   0.030
18254SOL    HW256770   1.277   7.386  -0.007
18255SOL     OW56771   0.484  10.763   7.223
18255SOL    HW156772   0.403  10.801   7.256
18255SOL    HW256773   0.469  10.669   7.223
18256SOL     OW56774   4.189   8.409  10.839
18256SOL    HW156775   4.284   8.410  10.853
18256SOL    HW256776   4.178   8.377  10.749
18257SOL     OW56777   3.942   6.227  10.904
18257SOL    HW156778   3.983   6.144  10.878
18257SOL    HW256779   3.907   6.262  10.822
18258SOL     OW56780   1.312   0.486   1.528
18258SOL    HW156781   1.218   0.486   1.543
18258SOL    HW256782   1.344   0.409   1.575
18259SOL     OW56783   1.192  10.583   3.445
18259SOL    HW156784   1.100  10.610   3.446
18259SOL    HW256785   1.233  10.639   3.379
18260SOL     OW56786   3.302   8.962   8.736
18260SOL    HW156787   3.303   8.932   8.827
18260SOL    HW256788   3.241   9.036   8.735
18261SOL     OW56789   6.061   1.645   6.616
18261SOL    HW156790   6.082   1.709   6.683
18261SOL    HW256791   6.024   1.571   6.664
18262SOL     OW56792   5.937   1.492   1.988
18262SOL    HW156793   5.850   1.471   1.956
18262SOL    HW256794   5.922   1.534   2.072
18263SOL     OW56795   1.096   7.581   0.784
18263SOL    HW156796   1.088   7.527   0.705
18263SOL    HW256797   1.164   7.645   0.762
18264SOL     OW56798   3.110   6.941   0.498
18264SOL    HW156799   3.079   6.930   0.588
18264SOL    HW256800   3.129   7.034   0.489
18265SOL     OW56801   9.543   4.415   4.057
18265SOL    HW156802   9.601   4.478   4.099
18265SOL    HW256803   9.464   4.465   4.036
18266SOL     OW56804   8.754   5.883  10.763
18266SOL    HW156805   8.679   5.904  10.818
18266SOL    HW256806   8.776   5.792  10.786
18267SOL     OW56807   3.539   9.757   4.951
18267SOL    HW156808   3.481   9.831   4.934
18267SOL    HW256809   3.481   9.687   4.980
18268SOL     OW56810   4.888   4.574   9.841
18268SOL    HW156811   4.950   4.624   9.894
18268SOL    HW256812   4.802   4.609   9.864
18269SOL     OW56813  10.153   4.705   4.978
18269SOL    HW156814  10.242   4.691   5.011
18269SOL    HW256815  10.120   4.779   5.029
18270SOL     OW56816   9.957   5.122   9.915
18270SOL    HW156817  10.018   5.176   9.965
18270SOL    HW256818  10.009   5.091   9.840
18271SOL     OW56819   2.700   8.643   3.671
18271SOL    HW156820   2.703   8.727   3.716
18271SOL    HW256821   2.790   8.611   3.674
18272SOL     OW56822   6.570   3.779   3.656
18272SOL    HW156823   6.613   3.764   3.571
18272SOL    HW256824   6.641   3.772   3.720
18273SOL     OW56825   7.718   9.853   1.007
18273SOL    HW156826   7.640   9.855   1.063
18273SOL    HW256827   7.749   9.762   1.013
18274SOL     OW56828   3.877   1.089   2.712
18274SOL    HW156829   3.846   1.174   2.743
18274SOL    HW256830   3.869   1.031   2.788
18275SOL     OW56831   1.491   0.683   3.714
18275SOL    HW156832   1.543   0.703   3.636
18275SOL    HW256833   1.402   0.673   3.681
18276SOL     OW56834   2.475   2.217   1.171
18276SOL    HW156835   2.450   2.206   1.079
18276SOL    HW256836   2.511   2.305   1.176
18277SOL     OW56837   3.694   4.325   9.367
18277SOL    HW156838   3.784   4.300   9.345
18277SOL    HW256839   3.676   4.399   9.310
18278SOL     OW56840   6.546   5.320   1.986
18278SOL    HW156841   6.477   5.354   2.042
18278SOL    HW256842   6.524   5.352   1.898
18279SOL     OW56843   8.525   4.951   6.060
18279SOL    HW156844   8.483   4.961   6.145
18279SOL    HW256845   8.598   4.890   6.076
18280SOL     OW56846   3.046   5.026   8.497
18280SOL    HW156847   3.059   5.121   8.497
18280SOL    HW256848   2.952   5.015   8.513
18281SOL     OW56849   3.664   6.231   0.370
18281SOL    HW156850   3.572   6.257   0.374
18281SOL    HW256851   3.712   6.313   0.362
18282SOL     OW56852   9.522   9.317  11.028
18282SOL    HW156853   9.589   9.300  10.962
18282SOL    HW256854   9.553   9.271  11.106
18283SOL     OW56855   1.717   8.767   3.150
18283SOL    HW156856   1.763   8.803   3.074
18283SOL    HW256857   1.677   8.843   3.192
18284SOL     OW56858  10.891   9.141   9.478
18284SOL    HW156859  10.955   9.097   9.533
18284SOL    HW256860  10.936   9.220   9.447
18285SOL     OW56861   3.058  10.371   1.313
18285SOL    HW156862   3.153  10.378   1.305
18285SOL    HW256863   3.044  10.302   1.378
18286SOL     OW56864   1.867   5.841   9.930
18286SOL    HW156865   1.913   5.757   9.939
18286SOL    HW256866   1.936   5.904   9.910
18287SOL     OW56867   6.046   2.958   0.342
18287SOL    HW156868   6.048   3.002   0.426
18287SOL    HW256869   6.037   2.865   0.364
18288SOL     OW56870   8.451   4.638   6.154
18288SOL    HW156871   8.522   4.631   6.090
18288SOL    HW256872   8.495   4.657   6.236
18289SOL     OW56873   2.780   1.073   6.638
18289SOL    HW156874   2.767   0.993   6.690
18289SOL    HW256875   2.733   1.056   6.556
18290SOL     OW56876   6.809   4.106   9.895
18290SOL    HW156877   6.819   4.196   9.924
18290SOL    HW256878   6.871   4.097   9.822
18291SOL     OW56879   6.643   3.447   0.493
18291SOL    HW156880   6.663   3.353   0.486
18291SOL    HW256881   6.706   3.480   0.557
18292SOL     OW56882   2.052   2.833   0.613
18292SOL    HW156883   1.978   2.853   0.670
18292SOL    HW256884   2.071   2.915   0.568
18293SOL     OW56885   7.525   1.180   4.510
18293SOL    HW156886   7.577   1.249   4.469
18293SOL    HW256887   7.585   1.138   4.572
18294SOL     OW56888   3.743   2.204   9.312
18294SOL    HW156889   3.710   2.293   9.321
18294SOL    HW256890   3.805   2.208   9.239
18295SOL     OW56891   7.123  10.129   0.893
18295SOL    HW156892   7.141  10.186   0.967
18295SOL    HW256893   7.114  10.041   0.931
18296SOL     OW56894   5.348   8.890   0.003
18296SOL    HW156895   5.340   8.976   0.044
18296SOL    HW256896   5.334   8.828   0.075
18297SOL     OW56897   9.273   7.284   8.467
18297SOL    HW156898   9.186   7.249   8.485
18297SOL    HW256899   9.324   7.263   8.545
18298SOL     OW56900   3.889   8.340   1.971
18298SOL    HW156901   3.963   8.325   1.912
18298SOL    HW256902   3.921   8.404   2.035
18299SOL     OW56903   4.853   5.031   7.525
18299SOL    HW156904   4.774   5.080   7.505
18299SOL    HW256905   4.907   5.091   7.575
18300SOL     OW56906   6.113   2.080   2.273
18300SOL    HW156907   6.071   2.153   2.318
18300SOL    HW256908   6.189   2.119   2.229
18301SOL     OW56909   1.005   7.903   8.272
18301SOL    HW156910   1.007   7.915   8.367
18301SOL    HW256911   1.086   7.943   8.241
18302SOL     OW56912  10.382   6.887   1.604
18302SOL    HW156913  10.383   6.922   1.693
18302SOL    HW256914  10.447   6.939   1.556
18303SOL     OW56915   3.157  10.837  10.123
18303SOL    HW156916   3.146  10.824  10.029
18303SOL    HW256917   3.069  10.859  10.154
18304SOL     OW56918   7.317   8.391   4.948
18304SOL    HW156919   7.337   8.420   5.037
18304SOL    HW256920   7.234   8.433   4.926
18305SOL     OW56921  10.159   3.668   1.166
18305SOL    HW156922  10.224   3.599   1.150
18305SOL    HW256923  10.081   3.621   1.196
18306SOL     OW56924   9.352   4.133   0.103
18306SOL    HW156925   9.389   4.203   0.050
18306SOL    HW256926   9.402   4.055   0.078
18307SOL     OW56927   0.788   1.597   7.399
18307SOL    HW156928   0.858   1.581   7.462
18307SOL    HW256929   0.707   1.589   7.450
18308SOL     OW56930   2.049   1.349   7.166
18308SOL    HW156931   2.132   1.356   7.119
18308SOL    HW256932   1.983   1.343   7.097
18309SOL     OW56933   8.743   9.300   5.458
18309SOL    HW156934   8.788   9.260   5.383
18309SOL    HW256935   8.772   9.391   5.457
18310SOL     OW56936   1.142   8.611   2.807
18310SOL    HW156937   1.113   8.540   2.865
18310SOL    HW256938   1.229   8.634   2.839
18311SOL     OW56939   5.806   3.214  10.187
18311SOL    HW156940   5.774   3.123  10.186
18311SOL    HW256941   5.742   3.261  10.240
18312SOL     OW56942   8.696   7.814  10.558
18312SOL    HW156943   8.774   7.869  10.554
18312SOL    HW256944   8.627   7.866  10.517
18313SOL     OW56945   1.629  10.600  10.214
18313SOL    HW156946   1.641  10.692  10.236
18313SOL    HW256947   1.617  10.556  10.298
18314SOL     OW56948  10.332  10.000   8.468
18314SOL    HW156949  10.352   9.953   8.549
18314SOL    HW256950  10.335   9.933   8.400
18315SOL     OW56951  10.955   0.298   4.885
18315SOL    HW156952  10.949   0.373   4.826
18315SOL    HW256953  10.897   0.319   4.958
18316SOL     OW56954   5.045   3.973  10.835
18316SOL    HW156955   4.960   3.970  10.791
18316SOL    HW256956   5.093   4.042  10.789
18317SOL     OW56957   1.835   3.832   4.378
18317SOL    HW156958   1.895   3.897   4.341
18317SOL    HW256959   1.814   3.774   4.304
18318SOL     OW56960  10.151   7.684   8.118
18318SOL    HW156961  10.231   7.721   8.154
18318SOL    HW256962  10.126   7.745   8.048
18319SOL     OW56963   6.385   0.565   2.728
18319SOL    HW156964   6.379   0.621   2.651
18319SOL    HW256965   6.299   0.523   2.733
18320SOL     OW56966   5.092   6.344   9.398
18320SOL    HW156967   5.042   6.361   9.477
18320SOL    HW256968   5.162   6.409   9.398
18321SOL     OW56969   4.776   7.447  10.640
18321SOL    HW156970   4.869   7.434  10.659
18321SOL    HW256971   4.740   7.485  10.720
18322SOL     OW56972   8.830   0.257   2.571
18322SOL    HW156973   8.843   0.174   2.525
18322SOL    HW256974   8.850   0.237   2.662
18323SOL     OW56975   2.738   2.331   1.425
18323SOL    HW156976   2.760   2.269   1.355
18323SOL    HW256977   2.719   2.275   1.500
18324SOL     OW56978   0.602  10.382   3.017
18324SOL    HW156979   0.521  10.332   3.023
18324SOL    HW256980   0.574  10.472   3.005
18325SOL     OW56981   2.909   9.805   3.816
18325SOL    HW156982   2.866   9.720   3.824
18325SOL    HW256983   2.998   9.784   3.789
18326SOL     OW56984   5.942   9.350  10.249
18326SOL    HW156985   5.971   9.381  10.163
18326SOL    HW256986   5.971   9.258  10.252
18327SOL     OW56987   4.008   7.358   1.434
18327SOL    HW156988   3.996   7.351   1.528
18327SOL    HW256989   3.934   7.411   1.404
18328SOL     OW56990   6.735   2.653   3.775
18328SOL    HW156991   6.672   2.724   3.788
18328SOL    HW256992   6.705   2.607   3.696
18329SOL     OW56993   0.751   1.981   1.811
18329SOL    HW156994   0.676   1.971   1.752
18329SOL    HW256995   0.820   2.019   1.756
18330SOL     OW56996   2.827   8.580   5.843
18330SOL    HW156997   2.780   8.508   5.884
18330SOL    HW256998   2.914   8.578   5.884
18331SOL     OW56999   7.538  10.700   2.114
18331SOL    HW157000   7.527  10.619   2.064
18331SOL    HW257001   7.632  10.707   2.129
18332SOL     OW57002   3.011   7.018   9.914
18332SOL    HW157003   3.009   7.003  10.008
18332SOL    HW257004   3.055   7.102   9.904
18333SOL     OW57005   3.604   4.088   6.892
18333SOL    HW157006   3.676   4.151   6.892
18333SOL    HW257007   3.633   4.018   6.833
18334SOL     OW57008   7.541   4.436   8.894
18334SOL    HW157009   7.554   4.436   8.989
18334SOL    HW257010   7.515   4.525   8.872
18335SOL     OW57011   2.863   0.847   9.910
18335SOL    HW157012   2.827   0.898   9.982
18335SOL    HW257013   2.788   0.799   9.875
18336SOL     OW57014   3.162   7.758   1.571
18336SOL    HW157015   3.135   7.827   1.510
18336SOL    HW257016   3.256   7.749   1.556
18337SOL     OW57017   8.861   0.431   8.942
18337SOL    HW157018   8.873   0.498   9.009
18337SOL    HW257019   8.781   0.385   8.967
18338SOL     OW57020   1.664   6.695   1.182
18338SOL    HW157021   1.722   6.621   1.201
18338SOL    HW257022   1.714   6.772   1.208
18339SOL     OW57023  10.897  10.726  10.241
18339SOL    HW157024  10.883  10.817  10.216
18339SOL    HW257025  10.823  10.679  10.203
18340SOL     OW57026   1.581   2.381   8.261
18340SOL    HW157027   1.645   2.431   8.211
18340SOL    HW257028   1.515   2.445   8.287
18341SOL     OW57029   0.573   1.539   6.939
18341SOL    HW157030   0.542   1.453   6.969
18341SOL    HW257031   0.651   1.556   6.991
18342SOL     OW57032   3.179   0.989   5.822
18342SOL    HW157033   3.188   0.897   5.849
18342SOL    HW257034   3.261   1.008   5.777
18343SOL     OW57035   0.754   2.966   4.490
18343SOL    HW157036   0.715   3.045   4.526
18343SOL    HW257037   0.830   2.948   4.546
18344SOL     OW57038   2.006   6.409  10.386
18344SOL    HW157039   1.931   6.461  10.358
18344SOL    HW257040   2.059   6.468  10.439
18345SOL     OW57041   4.254   2.055   1.151
18345SOL    HW157042   4.340   2.014   1.142
18345SOL    HW257043   4.256   2.097   1.237
18346SOL     OW57044   9.343   7.728   0.884
18346SOL    HW157045   9.412   7.697   0.825
18346SOL    HW257046   9.359   7.822   0.893
18347SOL     OW57047  10.878   5.574  10.572
18347SOL    HW157048  10.835   5.544  10.492
18347SOL    HW257049  10.821   5.544  10.642
18348SOL     OW57050  10.656   2.874   2.675
18348SOL    HW157051  10.597   2.947   2.660
18348SOL    HW257052  10.733   2.894   2.621
18349SOL     OW57053   0.842   9.572   1.084
18349SOL    HW157054   0.876   9.483   1.094
18349SOL    HW257055   0.804   9.573   0.996
18350SOL     OW57056   2.043   7.145   2.355
18350SOL    HW157057   2.030   7.202   2.279
18350SOL    HW257058   1.971   7.082   2.350
18351SOL     OW57059   3.894   9.548   0.444
18351SOL    HW157060   3.902   9.452   0.443
18351SOL    HW257061   3.879   9.572   0.352
18352SOL     OW57062   4.196   6.142   7.281
18352SOL    HW157063   4.105   6.115   7.268
18352SOL    HW257064   4.239   6.064   7.316
18353SOL     OW57065   2.178   6.008   3.438
18353SOL    HW157066   2.178   6.066   3.362
18353SOL    HW257067   2.121   5.935   3.412
18354SOL     OW57068   8.138   7.450   8.366
18354SOL    HW157069   8.106   7.454   8.276
18354SOL    HW257070   8.074   7.396   8.412
18355SOL     OW57071   7.039  10.607   8.988
18355SOL    HW157072   7.050  10.519   9.025
18355SOL    HW257073   7.069  10.599   8.897
18356SOL     OW57074   5.770  11.071  10.401
18356SOL    HW157075   5.767  10.982  10.365
18356SOL    HW257076   5.863  11.092  10.406
18357SOL     OW57077   3.492  10.287   0.228
18357SOL    HW157078   3.517  10.195   0.242
18357SOL    HW257079   3.574  10.331   0.204
18358SOL     OW57080   2.708   7.532   9.036
18358SOL    HW157081   2.802   7.546   9.050
18358SOL    HW257082   2.682   7.600   8.974
18359SOL     OW57083   3.335   5.205   8.861
18359SOL    HW157084   3.321   5.110   8.861
18359SOL    HW257085   3.351   5.227   8.952
18360SOL     OW57086   0.539   9.958   0.059
18360SOL    HW157087   0.604   9.932  -0.006
18360SOL    HW257088   0.459   9.914   0.032
18361SOL     OW57089   0.833   1.961   7.732
18361SOL    HW157090   0.902   2.019   7.762
18361SOL    HW257091   0.850   1.878   7.777
18362SOL     OW57092   1.478   1.291  10.264
18362SOL    HW157093   1.481   1.286  10.168
18362SOL    HW257094   1.534   1.219  10.293
18363SOL     OW57095  10.914   4.867   0.735
18363SOL    HW157096  10.946   4.903   0.817
18363SOL    HW257097  10.993   4.856   0.681
18364SOL     OW57098   9.906   4.160   2.107
18364SOL    HW157099   9.843   4.226   2.079
18364SOL    HW257100   9.940   4.124   2.025
18365SOL     OW57101   2.138   0.083   7.049
18365SOL    HW157102   2.069   0.111   6.989
18365SOL    HW257103   2.103   0.004   7.091
18366SOL     OW57104   4.789   3.460  10.723
18366SOL    HW157105   4.839   3.540  10.736
18366SOL    HW257106   4.808   3.434  10.633
18367SOL     OW57107   0.165   6.093   8.853
18367SOL    HW157108   0.131   6.091   8.942
18367SOL    HW257109   0.154   6.003   8.821
18368SOL     OW57110   9.053   0.204   1.158
18368SOL    HW157111   9.129   0.159   1.196
18368SOL    HW257112   9.083   0.294   1.145
18369SOL     OW57113  10.987   6.646   8.089
18369SOL    HW157114  11.043   6.711   8.046
18369SOL    HW257115  10.925   6.698   8.140
18370SOL     OW57116   2.887   7.989   9.610
18370SOL    HW157117   2.897   7.898   9.580
18370SOL    HW257118   2.824   7.983   9.682
18371SOL     OW57119   3.322   6.847  10.619
18371SOL    HW157120   3.333   6.753  10.604
18371SOL    HW257121   3.293   6.854  10.710
18372SOL     OW57122   2.657  10.808   9.224
18372SOL    HW157123   2.573  10.824   9.181
18372SOL    HW257124   2.651  10.718   9.255
18373SOL     OW57125   2.428   2.714  10.187
18373SOL    HW157126   2.426   2.803  10.152
18373SOL    HW257127   2.499   2.715  10.251
18374SOL     OW57128   8.157   9.922   7.061
18374SOL    HW157129   8.100   9.898   7.134
18374SOL    HW257130   8.237   9.870   7.075
18375SOL     OW57131   3.053   5.378   8.029
18375SOL    HW157132   3.069   5.299   7.976
18375SOL    HW257133   3.013   5.345   8.109
18376SOL     OW57134   4.215   4.053   1.208
18376SOL    HW157135   4.249   3.985   1.149
18376SOL    HW257136   4.243   4.026   1.295
18377SOL     OW57137   7.805   4.261   0.401
18377SOL    HW157138   7.737   4.196   0.422
18377SOL    HW257139   7.887   4.211   0.405
18378SOL     OW57140  10.385   8.019   6.416
18378SOL    HW157141  10.357   8.006   6.325
18378SOL    HW257142  10.380   8.113   6.429
18379SOL     OW57143   9.438   1.607   2.452
18379SOL    HW157144   9.515   1.592   2.506
18379SOL    HW257145   9.392   1.679   2.494
18380SOL     OW57146   6.397   8.752   6.358
18380SOL    HW157147   6.349   8.683   6.312
18380SOL    HW257148   6.345   8.769   6.436
18381SOL     OW57149  10.222   4.133   3.610
18381SOL    HW157150  10.282   4.122   3.684
18381SOL    HW257151  10.144   4.173   3.648
18382SOL     OW57152   4.762   2.322   7.343
18382SOL    HW157153   4.855   2.305   7.359
18382SOL    HW257154   4.758   2.414   7.319
18383SOL     OW57155   6.236   7.683   9.544
18383SOL    HW157156   6.188   7.749   9.593
18383SOL    HW257157   6.207   7.599   9.581
18384SOL     OW57158   9.469   1.946   3.423
18384SOL    HW157159   9.556   1.952   3.382
18384SOL    HW257160   9.453   2.033   3.459
18385SOL     OW57161   2.085   2.662   2.313
18385SOL    HW157162   2.075   2.606   2.390
18385SOL    HW257163   2.179   2.659   2.293
18386SOL     OW57164   8.515   8.573   2.849
18386SOL    HW157165   8.539   8.487   2.813
18386SOL    HW257166   8.522   8.562   2.944
18387SOL     OW57167   6.160  10.268  10.393
18387SOL    HW157168   6.193  10.240  10.478
18387SOL    HW257169   6.195  10.356  10.382
18388SOL     OW57170   9.341   4.367   4.593
18388SOL    HW157171   9.330   4.444   4.537
18388SOL    HW257172   9.391   4.399   4.668
18389SOL     OW57173   2.649   0.852   8.872
18389SOL    HW157174   2.612   0.794   8.805
18389SOL    HW257175   2.721   0.897   8.827
18390SOL     OW57176   4.408   1.347   8.144
18390SOL    HW157177   4.395   1.253   8.128
18390SOL    HW257178   4.335   1.389   8.099
18391SOL     OW57179   0.439   4.453   3.495
18391SOL    HW157180   0.398   4.385   3.441
18391SOL    HW257181   0.533   4.432   3.491
18392SOL     OW57182   8.321   8.166  10.253
18392SOL    HW157183   8.357   8.216  10.180
18392SOL    HW257184   8.322   8.227  10.326
18393SOL     OW57185   5.106   3.014   6.356
18393SOL    HW157186   5.173   2.968   6.304
18393SOL    HW257187   5.156   3.067   6.417
18394SOL     OW57188   4.583   0.068   5.085
18394SOL    HW157189   4.629   0.150   5.101
18394SOL    HW257190   4.586   0.057   4.990
18395SOL     OW57191   5.620   0.501   5.695
18395SOL    HW157192   5.572   0.444   5.755
18395SOL    HW257193   5.687   0.542   5.749
18396SOL     OW57194   5.847  10.750   6.564
18396SOL    HW157195   5.908  10.758   6.490
18396SOL    HW257196   5.845  10.656   6.582
18397SOL     OW57197   4.980  10.112  10.558
18397SOL    HW157198   5.033  10.070  10.490
18397SOL    HW257199   4.913  10.161  10.510
18398SOL     OW57200   1.881   0.245   2.873
18398SOL    HW157201   1.907   0.326   2.830
18398SOL    HW257202   1.786   0.241   2.861
18399SOL     OW57203   2.904   5.378  10.262
18399SOL    HW157204   2.977   5.439  10.250
18399SOL    HW257205   2.870   5.398  10.349
18400SOL     OW57206   8.939   4.319   5.353
18400SOL    HW157207   8.938   4.225   5.372
18400SOL    HW257208   8.949   4.323   5.258
18401SOL     OW57209   3.420   9.910  10.616
18401SOL    HW157210   3.410   9.913  10.520
18401SOL    HW257211   3.445   9.999  10.640
18402SOL     OW57212   3.721   2.975   3.424
18402SOL    HW157213   3.638   2.944   3.460
18402SOL    HW257214   3.782   2.973   3.498
18403SOL     OW57215   5.972   4.433   7.535
18403SOL    HW157216   5.944   4.512   7.579
18403SOL    HW257217   6.067   4.429   7.549
18404SOL     OW57218   5.940   4.112   3.366
18404SOL    HW157219   5.877   4.053   3.325
18404SOL    HW257220   5.954   4.181   3.301
18405SOL     OW57221   2.375   2.343   8.086
18405SOL    HW157222   2.298   2.348   8.142
18405SOL    HW257223   2.448   2.365   8.144
18406SOL     OW57224   2.037   1.355   9.646
18406SOL    HW157225   1.997   1.322   9.726
18406SOL    HW257226   2.054   1.447   9.663
18407SOL     OW57227  10.406   4.405   7.089
18407SOL    HW157228  10.436   4.366   7.171
18407SOL    HW257229  10.432   4.342   7.021
18408SOL     OW57230   8.955   4.971   8.993
18408SOL    HW157231   8.965   4.880   8.965
18408SOL    HW257232   8.984   5.022   8.917
18409SOL     OW57233   6.964   8.941   0.173
18409SOL    HW157234   7.005   9.017   0.214
18409SOL    HW257235   6.876   8.938   0.210
18410SOL     OW57236   6.018   4.311   4.822
18410SOL    HW157237   5.966   4.236   4.792
18410SOL    HW257238   6.092   4.272   4.869
18411SOL     OW57239   2.204   9.965  10.129
18411SOL    HW157240   2.256   9.885  10.136
18411SOL    HW257241   2.252  10.029  10.182
18412SOL     OW57242   7.926   5.860   4.587
18412SOL    HW157243   7.892   5.795   4.524
18412SOL    HW257244   7.879   5.941   4.566
18413SOL     OW57245   7.509   3.551   6.622
18413SOL    HW157246   7.528   3.462   6.652
18413SOL    HW257247   7.487   3.599   6.702
18414SOL     OW57248   4.447   7.891  10.044
18414SOL    HW157249   4.483   7.808  10.075
18414SOL    HW257250   4.488   7.904   9.958
18415SOL     OW57251   7.122   7.316   3.350
18415SOL    HW157252   7.064   7.250   3.311
18415SOL    HW257253   7.148   7.371   3.276
18416SOL     OW57254   9.962   4.010   7.200
18416SOL    HW157255   9.903   3.958   7.254
18416SOL    HW257256   9.975   3.956   7.121
18417SOL     OW57257   3.690   1.707   3.670
18417SOL    HW157258   3.657   1.634   3.723
18417SOL    HW257259   3.696   1.671   3.581
18418SOL     OW57260   3.502   6.412   2.057
18418SOL    HW157261   3.529   6.322   2.076
18418SOL    HW257262   3.421   6.424   2.106
18419SOL     OW57263   3.160  10.268  10.303
18419SOL    HW157264   3.122  10.281  10.389
18419SOL    HW257265   3.253  10.255  10.319
18420SOL     OW57266   9.711   2.749   1.566
18420SOL    HW157267   9.743   2.669   1.609
18420SOL    HW257268   9.778   2.769   1.500
18421SOL     OW57269   2.388   5.317   3.255
18421SOL    HW157270   2.419   5.341   3.342
18421SOL    HW257271   2.390   5.398   3.205
18422SOL     OW57272   3.572   3.575   3.341
18422SOL    HW157273   3.489   3.616   3.364
18422SOL    HW257274   3.638   3.622   3.392
18423SOL     OW57275   7.127   1.494   8.169
18423SOL    HW157276   7.213   1.488   8.128
18423SOL    HW257277   7.082   1.414   8.142
18424SOL     OW57278   4.211   2.939   0.376
18424SOL    HW157279   4.148   2.892   0.321
18424SOL    HW257280   4.165   2.953   0.458
18425SOL     OW57281   6.578   4.921   1.504
18425SOL    HW157282   6.611   4.993   1.450
18425SOL    HW257283   6.633   4.922   1.582
18426SOL     OW57284   3.476   6.676   4.913
18426SOL    HW157285   3.552   6.682   4.971
18426SOL    HW257286   3.421   6.608   4.952
18427SOL     OW57287   5.899   2.885   6.196
18427SOL    HW157288   5.865   2.928   6.117
18427SOL    HW257289   5.948   2.953   6.241
18428SOL     OW57290  10.151  10.077   2.070
18428SOL    HW157291  10.209  10.122   2.131
18428SOL    HW257292  10.180  10.106   1.983
18429SOL     OW57293   3.289   6.465   8.129
18429SOL    HW157294   3.366   6.519   8.145
18429SOL    HW257295   3.316   6.403   8.060
18430SOL     OW57296   6.929   1.629   1.962
18430SOL    HW157297   6.912   1.721   1.983
18430SOL    HW257298   6.842   1.590   1.953
18431SOL     OW57299   1.061   7.640   9.917
18431SOL    HW157300   1.130   7.575   9.905
18431SOL    HW257301   1.107   7.723   9.923
18432SOL     OW57302   7.503   9.835   0.386
18432SOL    HW157303   7.478   9.790   0.305
18432SOL    HW257304   7.496   9.768   0.454
18433SOL     OW57305   2.311   5.883   5.401
18433SOL    HW157306   2.310   5.798   5.356
18433SOL    HW257307   2.238   5.931   5.363
18434SOL     OW57308   9.129   4.326   1.384
18434SOL    HW157309   9.209   4.312   1.333
18434SOL    HW257310   9.086   4.400   1.341
18435SOL     OW57311  10.975  10.879   1.238
18435SOL    HW157312  10.905  10.867   1.174
18435SOL    HW257313  10.931  10.911   1.316
18436SOL     OW57314  10.726   2.075   2.200
18436SOL    HW157315  10.681   1.994   2.225
18436SOL    HW257316  10.678   2.106   2.123
18437SOL     OW57317   1.976   5.601   9.966
18437SOL    HW157318   1.941   5.532  10.022
18437SOL    HW257319   2.058   5.626  10.007
18438SOL     OW57320   2.768   5.908   6.531
18438SOL    HW157321   2.708   5.982   6.540
18438SOL    HW257322   2.845   5.932   6.582
18439SOL     OW57323   1.798   4.898   6.938
18439SOL    HW157324   1.869   4.944   6.982
18439SOL    HW257325   1.839   4.818   6.904
18440SOL     OW57326   5.037   6.189   3.590
18440SOL    HW157327   5.061   6.281   3.582
18440SOL    HW257328   5.055   6.167   3.681
18441SOL     OW57329   5.631   0.740   1.754
18441SOL    HW157330   5.574   0.811   1.725
18441SOL    HW257331   5.572   0.673   1.788
18442SOL     OW57332   8.637   6.507   0.950
18442SOL    HW157333   8.732   6.523   0.951
18442SOL    HW257334   8.620   6.472   0.862
18443SOL     OW57335   0.176   3.051   1.990
18443SOL    HW157336   0.141   2.971   2.030
18443SOL    HW257337   0.163   3.119   2.056
18444SOL     OW57338   3.104  10.997   3.683
18444SOL    HW157339   3.039  11.066   3.694
18444SOL    HW257340   3.097  10.945   3.763
18445SOL     OW57341   5.334   7.192   2.449
18445SOL    HW157342   5.257   7.218   2.499
18445SOL    HW257343   5.404   7.250   2.479
18446SOL     OW57344   6.789   9.397   1.440
18446SOL    HW157345   6.806   9.321   1.495
18446SOL    HW257346   6.837   9.468   1.482
18447SOL     OW57347   3.203   5.649   9.215
18447SOL    HW157348   3.227   5.734   9.178
18447SOL    HW257349   3.280   5.594   9.201
18448SOL     OW57350  10.891   0.807   0.868
18448SOL    HW157351  10.811   0.859   0.857
18448SOL    HW257352  10.891   0.747   0.793
18449SOL     OW57353   7.788   2.431  10.483
18449SOL    HW157354   7.798   2.491  10.409
18449SOL    HW257355   7.819   2.480  10.559
18450SOL     OW57356   4.027   6.091   2.120
18450SOL    HW157357   3.984   6.175   2.132
18450SOL    HW257358   4.050   6.063   2.208
18451SOL     OW57359   4.234   9.688   2.564
18451SOL    HW157360   4.233   9.593   2.579
18451SOL    HW257361   4.142   9.712   2.558
18452SOL     OW57362   6.978   9.425   8.516
18452SOL    HW157363   6.984   9.499   8.575
18452SOL    HW257364   7.067   9.389   8.514
18453SOL     OW57365   5.931  10.138   1.062
18453SOL    HW157366   5.879  10.111   0.986
18453SOL    HW257367   5.901  10.226   1.082
18454SOL     OW57368   5.888   6.291   9.675
18454SOL    HW157369   5.808   6.312   9.723
18454SOL    HW257370   5.884   6.196   9.662
18455SOL     OW57371   0.673   8.849   5.930
18455SOL    HW157372   0.710   8.900   5.858
18455SOL    HW257373   0.732   8.866   6.003
18456SOL     OW57374   4.260   8.721   0.958
18456SOL    HW157375   4.214   8.769   0.889
18456SOL    HW257376   4.334   8.777   0.981
18457SOL     OW57377   5.311   9.431   8.808
18457SOL    HW157378   5.273   9.461   8.890
18457SOL    HW257379   5.388   9.381   8.834
18458SOL     OW57380   2.880   8.984   6.917
18458SOL    HW157381   2.830   8.913   6.877
18458SOL    HW257382   2.814   9.040   6.957
18459SOL     OW57383   1.262   1.645   5.500
18459SOL    HW157384   1.184   1.603   5.464
18459SOL    HW257385   1.248   1.645   5.594
18460SOL     OW57386   4.519   5.666   8.982
18460SOL    HW157387   4.459   5.652   8.908
18460SOL    HW257388   4.473   5.726   9.039
18461SOL     OW57389   5.987   8.937   9.844
18461SOL    HW157390   6.042   8.981   9.779
18461SOL    HW257391   6.035   8.947   9.926
18462SOL     OW57392   2.627   2.624   2.395
18462SOL    HW157393   2.598   2.693   2.335
18462SOL    HW257394   2.557   2.558   2.392
18463SOL     OW57395   5.245   2.644   2.745
18463SOL    HW157396   5.169   2.600   2.783
18463SOL    HW257397   5.218   2.665   2.655
18464SOL     OW57398   4.650   6.475  10.238
18464SOL    HW157399   4.608   6.545  10.287
18464SOL    HW257400   4.582   6.442  10.179
18465SOL     OW57401   5.561   6.520   8.989
18465SOL    HW157402   5.575   6.438   8.940
18465SOL    HW257403   5.649   6.557   8.998
18466SOL     OW57404   6.178   0.559   5.956
18466SOL    HW157405   6.184   0.557   5.860
18466SOL    HW257406   6.269   0.554   5.986
18467SOL     OW57407   0.980   9.160   9.099
18467SOL    HW157408   0.931   9.168   9.017
18467SOL    HW257409   0.914   9.172   9.167
18468SOL     OW57410   6.958  10.851   5.240
18468SOL    HW157411   7.026  10.850   5.307
18468SOL    HW257412   6.877  10.864   5.289
18469SOL     OW57413   0.970   3.712   4.623
18469SOL    HW157414   0.903   3.776   4.643
18469SOL    HW257415   0.952   3.686   4.532
18470SOL     OW57416   1.101  10.563   4.141
18470SOL    HW157417   1.171  10.587   4.202
18470SOL    HW257418   1.052  10.644   4.127
18471SOL     OW57419   3.663   1.930   6.539
18471SOL    HW157420   3.614   1.858   6.579
18471SOL    HW257421   3.734   1.886   6.490
18472SOL     OW57422   7.132  11.092   1.334
18472SOL    HW157423   7.217  11.135   1.326
18472SOL    HW257424   7.076  11.139   1.272
18473SOL     OW57425   8.513   9.294   0.822
18473SOL    HW157426   8.539   9.330   0.737
18473SOL    HW257427   8.419   9.280   0.814
18474SOL     OW57428   3.071   4.830   3.440
18474SOL    HW157429   3.119   4.903   3.479
18474SOL    HW257430   2.990   4.824   3.491
18475SOL     OW57431   6.929   7.816   1.073
18475SOL    HW157432   6.913   7.909   1.059
18475SOL    HW257433   7.014   7.800   1.031
18476SOL     OW57434   7.073   3.672   0.488
18476SOL    HW157435   7.031   3.643   0.407
18476SOL    HW257436   7.162   3.636   0.482
18477SOL     OW57437   9.177  10.014   9.662
18477SOL    HW157438   9.157  10.084   9.723
18477SOL    HW257439   9.092   9.989   9.626
18478SOL     OW57440  10.727   4.033   7.663
18478SOL    HW157441  10.655   3.984   7.703
18478SOL    HW257442  10.798   4.028   7.727
18479SOL     OW57443   3.686   7.018   5.117
18479SOL    HW157444   3.601   6.994   5.154
18479SOL    HW257445   3.720   7.087   5.174
18480SOL     OW57446  10.645   5.973   1.851
18480SOL    HW157447  10.561   5.928   1.843
18480SOL    HW257448  10.708   5.912   1.813
18481SOL     OW57449   3.390   1.680   8.750
18481SOL    HW157450   3.354   1.638   8.672
18481SOL    HW257451   3.419   1.766   8.720
18482SOL     OW57452   1.660   6.169   9.562
18482SOL    HW157453   1.724   6.098   9.562
18482SOL    HW257454   1.678   6.218   9.481
18483SOL     OW57455   7.456   4.991   3.311
18483SOL    HW157456   7.367   5.008   3.281
18483SOL    HW257457   7.462   5.035   3.396
18484SOL     OW57458   9.739   4.641   3.866
18484SOL    HW157459   9.716   4.731   3.889
18484SOL    HW257460   9.803   4.650   3.795
18485SOL     OW57461   5.007  10.221   1.419
18485SOL    HW157462   5.069  10.267   1.475
18485SOL    HW257463   5.055  10.205   1.338
18486SOL     OW57464   5.719  10.745   3.451
18486SOL    HW157465   5.658  10.747   3.524
18486SOL    HW257466   5.720  10.654   3.422
18487SOL     OW57467   4.157  10.768  10.947
18487SOL    HW157468   4.159  10.704  10.876
18487SOL    HW257469   4.248  10.777  10.974
18488SOL     OW57470   3.034   1.115   1.330
18488SOL    HW157471   3.118   1.144   1.366
18488SOL    HW257472   2.968   1.156   1.386
18489SOL     OW57473   3.607  10.697   5.967
18489SOL    HW157474   3.595  10.672   6.058
18489SOL    HW257475   3.601  10.615   5.918
18490SOL     OW57476   8.993   1.689   4.868
18490SOL    HW157477   9.005   1.594   4.857
18490SOL    HW257478   8.998   1.703   4.962
18491SOL     OW57479   1.238   9.664   2.223
18491SOL    HW157480   1.331   9.685   2.221
18491SOL    HW257481   1.195   9.742   2.189
18492SOL     OW57482   6.575   8.138   3.236
18492SOL    HW157483   6.499   8.130   3.293
18492SOL    HW257484   6.540   8.128   3.147
18493SOL     OW57485   9.176  10.404   2.405
18493SOL    HW157486   9.116  10.422   2.332
18493SOL    HW257487   9.248  10.355   2.365
18494SOL     OW57488   4.421   1.779   2.533
18494SOL    HW157489   4.491   1.844   2.532
18494SOL    HW257490   4.466   1.696   2.551
18495SOL     OW57491   8.034   6.854   8.898
18495SOL    HW157492   7.973   6.913   8.942
18495SOL    HW257493   8.037   6.886   8.808
18496SOL     OW57494   7.785   8.356   6.438
18496SOL    HW157495   7.810   8.329   6.526
18496SOL    HW257496   7.865   8.394   6.401
18497SOL     OW57497   3.990   4.309   0.485
18497SOL    HW157498   3.921   4.288   0.548
18497SOL    HW257499   4.043   4.375   0.528
18498SOL     OW57500   7.641   1.032   1.884
18498SOL    HW157501   7.706   0.972   1.848
18498SOL    HW257502   7.691   1.109   1.911
18499SOL     OW57503   0.991   7.143   2.656
18499SOL    HW157504   0.948   7.183   2.731
18499SOL    HW257505   0.983   7.049   2.671
18500SOL     OW57506   8.312   5.168   2.791
18500SOL    HW157507   8.262   5.114   2.729
18500SOL    HW257508   8.378   5.211   2.737
18501SOL     OW57509   6.728   3.483   2.523
18501SOL    HW157510   6.749   3.517   2.610
18501SOL    HW257511   6.813   3.466   2.482
18502SOL     OW57512   8.450   7.189   2.829
18502SOL    HW157513   8.402   7.184   2.911
18502SOL    HW257514   8.388   7.228   2.767
18503SOL     OW57515   3.723   4.150   3.269
18503SOL    HW157516   3.781   4.217   3.306
18503SOL    HW257517   3.782   4.079   3.243
18504SOL     OW57518   7.647  10.478   1.781
18504SOL    HW157519   7.600  10.414   1.727
18504SOL    HW257520   7.619  10.459   1.870
18505SOL     OW57521   4.253   0.299  10.690
18505SOL    HW157522   4.241   0.205  10.676
18505SOL    HW257523   4.178   0.325  10.743
18506SOL     OW57524   4.997   3.283   2.222
18506SOL    HW157525   4.905   3.295   2.246
18506SOL    HW257526   5.001   3.308   2.130
18507SOL     OW57527  10.262   2.911   2.886
18507SOL    HW157528  10.324   2.872   2.947
18507SOL    HW257529  10.193   2.947   2.941
18508SOL     OW57530   2.781   6.265   4.420
18508SOL    HW157531   2.873   6.243   4.437
18508SOL    HW257532   2.779   6.360   4.419
18509SOL     OW57533   0.624   7.611  10.100
18509SOL    HW157534   0.719   7.610  10.114
18509SOL    HW257535   0.597   7.700  10.123
18510SOL     OW57536   9.888   2.976   9.672
18510SOL    HW157537   9.863   3.037   9.603
18510SOL    HW257538   9.852   3.013   9.752
18511SOL     OW57539   3.618   5.628   5.394
18511SOL    HW157540   3.697   5.619   5.340
18511SOL    HW257541   3.651   5.642   5.482
18512SOL     OW57542   2.584   8.950   3.744
18512SOL    HW157543   2.648   9.008   3.785
18512SOL    HW257544   2.505   8.959   3.797
18513SOL     OW57545   5.273   3.354   8.147
18513SOL    HW157546   5.366   3.368   8.129
18513SOL    HW257547   5.255   3.408   8.223
18514SOL     OW57548   4.464   4.016   3.927
18514SOL    HW157549   4.522   4.055   3.862
18514SOL    HW257550   4.429   4.090   3.976
18515SOL     OW57551  10.200   9.869   0.637
18515SOL    HW157552  10.152   9.906   0.563
18515SOL    HW257553  10.290   9.861   0.605
18516SOL     OW57554   9.771   7.280   0.264
18516SOL    HW157555   9.804   7.259   0.351
18516SOL    HW257556   9.822   7.356   0.236
18517SOL     OW57557   7.405   3.153  10.972
18517SOL    HW157558   7.452   3.074  10.944
18517SOL    HW257559   7.473   3.219  10.981
18518SOL     OW57560   4.149   3.980   7.940
18518SOL    HW157561   4.140   3.982   7.844
18518SOL    HW257562   4.059   3.978   7.973
18519SOL     OW57563   5.798   6.865   1.759
18519SOL    HW157564   5.865   6.799   1.776
18519SOL    HW257565   5.843   6.948   1.771
18520SOL     OW57566   4.002   3.047   0.902
18520SOL    HW157567   3.990   3.040   0.996
18520SOL    HW257568   3.936   2.988   0.865
18521SOL     OW57569   1.799   1.797   4.803
18521SOL    HW157570   1.865   1.796   4.872
18521SOL    HW257571   1.717   1.775   4.847
18522SOL     OW57572   4.010   5.790   2.743
18522SOL    HW157573   3.971   5.702   2.747
18522SOL    HW257574   4.090   5.783   2.795
18523SOL     OW57575  10.602   4.729   8.760
18523SOL    HW157576  10.683   4.773   8.785
18523SOL    HW257577  10.613   4.712   8.666
18524SOL     OW57578   8.194  10.659  10.534
18524SOL    HW157579   8.264  10.656  10.469
18524SOL    HW257580   8.221  10.596  10.601
18525SOL     OW57581   4.956   5.198   5.572
18525SOL    HW157582   5.042   5.192   5.612
18525SOL    HW257583   4.970   5.171   5.481
18526SOL     OW57584   0.964   6.438   6.823
18526SOL    HW157585   0.929   6.432   6.912
18526SOL    HW257586   1.008   6.354   6.809
18527SOL     OW57587   9.485  10.059   8.856
18527SOL    HW157588   9.572  10.079   8.891
18527SOL    HW257589   9.447  10.144   8.836
18528SOL     OW57590   1.896   5.278   4.155
18528SOL    HW157591   1.829   5.342   4.180
18528SOL    HW257592   1.846   5.202   4.125
18529SOL     OW57593   3.622   5.205   6.007
18529SOL    HW157594   3.568   5.206   6.086
18529SOL    HW257595   3.607   5.118   5.968
18530SOL     OW57596   0.959   7.224   8.030
18530SOL    HW157597   0.885   7.262   8.076
18530SOL    HW257598   0.968   7.136   8.066
18531SOL     OW57599   6.389   6.284   8.197
18531SOL    HW157600   6.309   6.273   8.146
18531SOL    HW257601   6.433   6.199   8.190
18532SOL     OW57602  10.645   4.450   7.846
18532SOL    HW157603  10.733   4.414   7.860
18532SOL    HW257604  10.660   4.535   7.806
18533SOL     OW57605   8.588   5.301   2.122
18533SOL    HW157606   8.558   5.308   2.212
18533SOL    HW257607   8.513   5.266   2.074
18534SOL     OW57608   1.700   6.744   0.443
18534SOL    HW157609   1.686   6.835   0.417
18534SOL    HW257610   1.632   6.727   0.508
18535SOL     OW57611   4.140  10.239   5.107
18535SOL    HW157612   4.136  10.330   5.079
18535SOL    HW257613   4.222  10.233   5.156
18536SOL     OW57614  10.823   1.263   6.111
18536SOL    HW157615  10.897   1.300   6.159
18536SOL    HW257616  10.758   1.244   6.178
18537SOL     OW57617   7.305   8.662   3.807
18537SOL    HW157618   7.348   8.735   3.763
18537SOL    HW257619   7.313   8.682   3.900
18538SOL     OW57620   3.028   3.726   0.023
18538SOL    HW157621   3.082   3.762   0.093
18538SOL    HW257622   2.991   3.802  -0.021
18539SOL     OW57623   4.277   3.406   2.228
18539SOL    HW157624   4.354   3.463   2.221
18539SOL    HW257625   4.313   3.317   2.220
18540SOL     OW57626   9.751   4.187   0.054
18540SOL    HW157627   9.669   4.215   0.013
18540SOL    HW257628   9.756   4.093   0.036
18541SOL     OW57629   5.392   2.524   2.913
18541SOL    HW157630   5.333   2.565   2.850
18541SOL    HW257631   5.418   2.442   2.871
18542SOL     OW57632   2.995   4.666   3.869
18542SOL    HW157633   3.060   4.628   3.928
18542SOL    HW257634   2.915   4.672   3.921
18543SOL     OW57635   2.591   7.408   8.196
18543SOL    HW157636   2.634   7.370   8.119
18543SOL    HW257637   2.662   7.452   8.243
18544SOL     OW57638   6.966   3.987   9.693
18544SOL    HW157639   7.052   3.992   9.734
18544SOL    HW257640   6.974   3.915   9.630
18545SOL     OW57641   7.994  10.643   2.651
18545SOL    HW157642   7.975  10.737   2.644
18545SOL    HW257643   8.031  10.632   2.738
18546SOL     OW57644   2.959   6.632   0.018
18546SOL    HW157645   2.942   6.670  -0.068
18546SOL    HW257646   3.053   6.646   0.032
18547SOL     OW57647   4.093   5.970   0.613
18547SOL    HW157648   4.092   6.045   0.672
18547SOL    HW257649   4.040   5.997   0.538
18548SOL     OW57650   7.115   2.044   7.520
18548SOL    HW157651   7.194   2.003   7.555
18548SOL    HW257652   7.050   2.034   7.589
18549SOL     OW57653   6.020   6.888  10.202
18549SOL    HW157654   5.944   6.911  10.256
18549SOL    HW257655   6.075   6.966  10.204
18550SOL     OW57656   4.732   1.711   6.306
18550SOL    HW157657   4.654   1.736   6.257
18550SOL    HW257658   4.799   1.698   6.239
18551SOL     OW57659   5.595   9.227  10.965
18551SOL    HW157660   5.512   9.235  10.918
18551SOL    HW257661   5.662   9.227  10.896
18552SOL     OW57662   1.031   3.099   4.713
18552SOL    HW157663   1.125   3.104   4.733
18552SOL    HW257664   0.994   3.179   4.748
18553SOL     OW57665   3.240   7.914   9.524
18553SOL    HW157666   3.244   7.880   9.434
18553SOL    HW257667   3.171   7.862   9.566
18554SOL     OW57668   4.844   4.351   7.392
18554SOL    HW157669   4.930   4.325   7.359
18554SOL    HW257670   4.859   4.375   7.483
18555SOL     OW57671   3.473   6.602   2.321
18555SOL    HW157672   3.454   6.683   2.274
18555SOL    HW257673   3.395   6.548   2.307
18556SOL     OW57674   9.276   3.182   1.413
18556SOL    HW157675   9.197   3.159   1.461
18556SOL    HW257676   9.318   3.098   1.395
18557SOL     OW57677   8.213   9.221   5.062
18557SOL    HW157678   8.162   9.205   5.141
18557SOL    HW257679   8.173   9.298   5.022
18558SOL     OW57680   1.136   6.634   4.170
18558SOL    HW157681   1.225   6.637   4.136
18558SOL    HW257682   1.107   6.725   4.169
18559SOL     OW57683   5.177   0.051   7.485
18559SOL    HW157684   5.113   0.105   7.439
18559SOL    HW257685   5.180  -0.031   7.435
18560SOL     OW57686   4.893   6.510   8.211
18560SOL    HW157687   4.858   6.424   8.233
18560SOL    HW257688   4.873   6.520   8.118
18561SOL     OW57689   5.019   7.751   7.952
18561SOL    HW157690   5.106   7.723   7.981
18561SOL    HW257691   4.960   7.682   7.983
18562SOL     OW57692   5.596   7.855   8.630
18562SOL    HW157693   5.691   7.851   8.641
18562SOL    HW257694   5.563   7.880   8.716
18563SOL     OW57695   1.785   4.474   4.413
18563SOL    HW157696   1.821   4.388   4.388
18563SOL    HW257697   1.765   4.516   4.329
18564SOL     OW57698   6.565   0.757  10.164
18564SOL    HW157699   6.509   0.807  10.104
18564SOL    HW257700   6.591   0.820  10.231
18565SOL     OW57701   4.344   6.731   1.480
18565SOL    HW157702   4.359   6.775   1.396
18565SOL    HW257703   4.251   6.711   1.480
18566SOL     OW57704   9.434   3.862   8.305
18566SOL    HW157705   9.382   3.811   8.367
18566SOL    HW257706   9.458   3.799   8.236
18567SOL     OW57707   5.593   5.277   4.944
18567SOL    HW157708   5.597   5.281   5.039
18567SOL    HW257709   5.676   5.236   4.918
18568SOL     OW57710   7.406   1.343   5.879
18568SOL    HW157711   7.323   1.388   5.864
18568SOL    HW257712   7.433   1.313   5.792
18569SOL     OW57713   3.595  10.177  11.014
18569SOL    HW157714   3.674  10.184  10.960
18569SOL    HW257715   3.615  10.228  11.092
18570SOL     OW57716   3.289   8.508   2.047
18570SOL    HW157717   3.376   8.493   2.085
18570SOL    HW257718   3.253   8.420   2.035
18571SOL     OW57719   8.884  10.517   1.249
18571SOL    HW157720   8.825  10.471   1.189
18571SOL    HW257721   8.937  10.447   1.288
18572SOL     OW57722   3.293   5.508   4.031
18572SOL    HW157723   3.362   5.531   3.969
18572SOL    HW257724   3.222   5.568   4.011
18573SOL     OW57725   3.383   9.588   5.526
18573SOL    HW157726   3.419   9.616   5.441
18573SOL    HW257727   3.296   9.555   5.505
18574SOL     OW57728   9.904   6.776  10.608
18574SOL    HW157729   9.919   6.709  10.540
18574SOL    HW257730   9.989   6.786  10.651
18575SOL     OW57731   2.597   1.992   4.066
18575SOL    HW157732   2.582   2.050   3.992
18575SOL    HW257733   2.513   1.948   4.079
18576SOL     OW57734   7.624   6.447   7.120
18576SOL    HW157735   7.561   6.464   7.050
18576SOL    HW257736   7.699   6.408   7.075
18577SOL     OW57737   5.134   6.910   8.750
18577SOL    HW157738   5.154   6.901   8.843
18577SOL    HW257739   5.086   6.830   8.728
18578SOL     OW57740   3.491   0.368   5.977
18578SOL    HW157741   3.561   0.305   5.996
18578SOL    HW257742   3.450   0.334   5.897
18579SOL     OW57743   5.638   8.433  10.195
18579SOL    HW157744   5.616   8.484  10.273
18579SOL    HW257745   5.567   8.452  10.133
18580SOL     OW57746   7.007   5.232   0.861
18580SOL    HW157747   6.918   5.202   0.876
18580SOL    HW257748   7.017   5.230   0.766
18581SOL     OW57749   8.956   4.561   5.600
18581SOL    HW157750   8.924   4.482   5.555
18581SOL    HW257751   8.923   4.553   5.689
18582SOL     OW57752   3.695   5.689   5.757
18582SOL    HW157753   3.629   5.755   5.738
18582SOL    HW257754   3.755   5.731   5.818
18583SOL     OW57755   4.137   1.080   0.728
18583SOL    HW157756   4.076   1.125   0.670
18583SOL    HW257757   4.220   1.125   0.714
18584SOL     OW57758   3.767   7.463   1.715
18584SOL    HW157759   3.704   7.457   1.787
18584SOL    HW257760   3.786   7.556   1.706
18585SOL     OW57761   9.434   0.466  10.246
18585SOL    HW157762   9.471   0.532  10.187
18585SOL    HW257763   9.443   0.383  10.198
18586SOL     OW57764   7.422   6.033   4.797
18586SOL    HW157765   7.433   6.097   4.727
18586SOL    HW257766   7.512   6.010   4.822
18587SOL     OW57767   9.152   7.034  10.286
18587SOL    HW157768   9.229   6.978  10.298
18587SOL    HW257769   9.180   7.100  10.223
18588SOL     OW57770  10.361   8.608  10.257
18588SOL    HW157771  10.284   8.575  10.210
18588SOL    HW257772  10.328   8.634  10.343
18589SOL     OW57773   5.493   6.965   1.705
18589SOL    HW157774   5.461   6.922   1.784
18589SOL    HW257775   5.485   6.898   1.637
18590SOL     OW57776   5.250   7.198   9.974
18590SOL    HW157777   5.311   7.136   9.933
18590SOL    HW257778   5.211   7.148  10.046
18591SOL     OW57779   7.865  10.787   1.409
18591SOL    HW157780   7.854  10.857   1.344
18591SOL    HW257781   7.953  10.752   1.391
18592SOL     OW57782   3.200   4.701   1.873
18592SOL    HW157783   3.113   4.683   1.909
18592SOL    HW257784   3.204   4.649   1.793
18593SOL     OW57785  10.318   6.076   1.399
18593SOL    HW157786  10.288   6.118   1.479
18593SOL    HW257787  10.388   6.017   1.427
18594SOL     OW57788   7.302   0.586   0.536
18594SOL    HW157789   7.270   0.497   0.550
18594SOL    HW257790   7.227   0.633   0.501
18595SOL     OW57791   5.493   7.635   7.669
18595SOL    HW157792   5.418   7.590   7.629
18595SOL    HW257793   5.569   7.599   7.623
18596SOL     OW57794   7.424  10.904   4.661
18596SOL    HW157795   7.340  10.950   4.657
18596SOL    HW257796   7.463  10.930   4.744
18597SOL     OW57797   3.490   5.290   2.640
18597SOL    HW157798   3.501   5.326   2.728
18597SOL    HW257799   3.560   5.225   2.631
18598SOL     OW57800   3.906   2.105   1.292
18598SOL    HW157801   3.832   2.116   1.352
18598SOL    HW257802   3.982   2.093   1.349
18599SOL     OW57803   5.659   6.860   0.897
18599SOL    HW157804   5.597   6.903   0.955
18599SOL    HW257805   5.739   6.852   0.949
18600SOL     OW57806   2.968   2.329   6.775
18600SOL    HW157807   2.940   2.414   6.807
18600SOL    HW257808   3.038   2.349   6.712
18601SOL     OW57809   6.978   4.914   7.797
18601SOL    HW157810   6.928   4.929   7.717
18601SOL    HW257811   6.951   4.827   7.826
18602SOL     OW57812   8.076   8.950   8.885
18602SOL    HW157813   8.004   9.006   8.915
18602SOL    HW257814   8.036   8.864   8.873
18603SOL     OW57815   1.784   6.280   2.769
18603SOL    HW157816   1.868   6.269   2.814
18603SOL    HW257817   1.764   6.193   2.734
18604SOL     OW57818   4.413   3.937   2.541
18604SOL    HW157819   4.365   4.003   2.491
18604SOL    HW257820   4.353   3.909   2.610
18605SOL     OW57821   1.220   8.403   3.669
18605SOL    HW157822   1.166   8.331   3.702
18605SOL    HW257823   1.166   8.445   3.602
18606SOL     OW57824   3.995   4.815   2.648
18606SOL    HW157825   3.989   4.836   2.555
18606SOL    HW257826   4.089   4.813   2.665
18607SOL     OW57827   5.099   0.543   2.312
18607SOL    HW157828   5.019   0.490   2.306
18607SOL    HW257829   5.070   0.632   2.295
18608SOL     OW57830   5.940   7.246   1.301
18608SOL    HW157831   5.994   7.316   1.265
18608SOL    HW257832   5.851   7.267   1.272
18609SOL     OW57833   3.621   4.258   0.869
18609SOL    HW157834   3.571   4.337   0.886
18609SOL    HW257835   3.569   4.188   0.907
18610SOL     OW57836   4.817   3.656   7.846
18610SOL    HW157837   4.733   3.650   7.799
18610SOL    HW257838   4.869   3.718   7.794
18611SOL     OW57839   2.690  11.078   5.860
18611SOL    HW157840   2.762  11.123   5.904
18611SOL    HW257841   2.725  11.055   5.774
18612SOL     OW57842   7.813   5.016  10.137
18612SOL    HW157843   7.803   4.988  10.228
18612SOL    HW257844   7.903   5.048  10.131
18613SOL     OW57845   7.184   1.234   5.211
18613SOL    HW157846   7.104   1.209   5.257
18613SOL    HW257847   7.154   1.267   5.126
18614SOL     OW57848  10.946   7.003   0.793
18614SOL    HW157849  10.869   7.026   0.741
18614SOL    HW257850  10.950   6.907   0.788
18615SOL     OW57851   7.570  10.575   6.826
18615SOL    HW157852   7.488  10.558   6.779
18615SOL    HW257853   7.635  10.520   6.782
18616SOL     OW57854   6.761   3.823   6.863
18616SOL    HW157855   6.789   3.906   6.902
18616SOL    HW257856   6.769   3.759   6.934
18617SOL     OW57857   5.954   4.033   5.730
18617SOL    HW157858   6.034   4.054   5.682
18617SOL    HW257859   5.889   4.015   5.662
18618SOL     OW57860   5.998   1.520   3.645
18618SOL    HW157861   6.005   1.602   3.693
18618SOL    HW257862   6.004   1.545   3.553
18619SOL     OW57863   2.596   7.761   7.116
18619SOL    HW157864   2.689   7.780   7.102
18619SOL    HW257865   2.579   7.684   7.062
18620SOL     OW57866   3.978   6.653   2.052
18620SOL    HW157867   3.921   6.681   2.123
18620SOL    HW257868   4.067   6.661   2.087
18621SOL     OW57869   8.092   6.959   0.291
18621SOL    HW157870   8.132   7.010   0.361
18621SOL    HW257871   8.051   6.885   0.335
18622SOL     OW57872   8.387   4.891   3.231
18622SOL    HW157873   8.368   4.946   3.155
18622SOL    HW257874   8.341   4.809   3.213
18623SOL     OW57875   6.200  10.764   3.573
18623SOL    HW157876   6.107  10.754   3.591
18623SOL    HW257877   6.235  10.675   3.574
18624SOL     OW57878   1.535   9.949   3.742
18624SOL    HW157879   1.573   9.933   3.828
18624SOL    HW257880   1.571  10.033   3.714
18625SOL     OW57881   6.451  10.108   1.606
18625SOL    HW157882   6.521  10.100   1.541
18625SOL    HW257883   6.372  10.121   1.554
18626SOL     OW57884   1.799   3.685   2.575
18626SOL    HW157885   1.805   3.669   2.481
18626SOL    HW257886   1.705   3.686   2.593
18627SOL     OW57887   0.114   7.144   0.617
18627SOL    HW157888   0.155   7.113   0.536
18627SOL    HW257889   0.024   7.109   0.613
18628SOL     OW57890   7.826   5.734   8.869
18628SOL    HW157891   7.866   5.821   8.865
18628SOL    HW257892   7.844   5.702   8.957
18629SOL     OW57893   2.290   2.062  10.482
18629SOL    HW157894   2.247   2.103  10.557
18629SOL    HW257895   2.296   1.969  10.505
18630SOL     OW57896   1.985   8.099   2.512
18630SOL    HW157897   1.925   8.141   2.450
18630SOL    HW257898   1.972   8.146   2.594
18631SOL     OW57899   4.737   8.504   6.746
18631SOL    HW157900   4.697   8.550   6.672
18631SOL    HW257901   4.786   8.432   6.706
18632SOL     OW57902   6.335   4.880   5.465
18632SOL    HW157903   6.267   4.896   5.529
18632SOL    HW257904   6.289   4.846   5.388
18633SOL     OW57905   8.493   0.701   5.781
18633SOL    HW157906   8.563   0.734   5.725
18633SOL    HW257907   8.537   0.642   5.842
18634SOL     OW57908   5.601   4.229   8.251
18634SOL    HW157909   5.680   4.283   8.256
18634SOL    HW257910   5.549   4.256   8.326
18635SOL     OW57911   4.300  10.352   1.726
18635SOL    HW157912   4.294  10.265   1.687
18635SOL    HW257913   4.391  10.377   1.712
18636SOL     OW57914   5.089   7.777   3.980
18636SOL    HW157915   5.022   7.714   3.954
18636SOL    HW257916   5.081   7.847   3.916
18637SOL     OW57917   5.739   6.383   5.764
18637SOL    HW157918   5.750   6.350   5.675
18637SOL    HW257919   5.827   6.383   5.801
18638SOL     OW57920   4.957   5.739   2.729
18638SOL    HW157921   4.911   5.660   2.757
18638SOL    HW257922   5.045   5.730   2.766
18639SOL     OW57923   8.718   0.856   9.341
18639SOL    HW157924   8.739   0.942   9.306
18639SOL    HW257925   8.759   0.854   9.427
18640SOL     OW57926   2.748   7.513   4.512
18640SOL    HW157927   2.746   7.485   4.603
18640SOL    HW257928   2.718   7.604   4.514
18641SOL     OW57929   4.047   9.551   0.073
18641SOL    HW157930   4.130   9.506   0.089
18641SOL    HW257931   4.072   9.639   0.045
18642SOL     OW57932   3.933   5.126   5.437
18642SOL    HW157933   3.919   5.031   5.428
18642SOL    HW257934   3.888   5.149   5.518
18643SOL     OW57935   0.962   7.413   1.323
18643SOL    HW157936   1.038   7.356   1.310
18643SOL    HW257937   0.989   7.497   1.287
18644SOL     OW57938   1.520   1.917   0.187
18644SOL    HW157939   1.549   2.008   0.179
18644SOL    HW257940   1.574   1.881   0.258
18645SOL     OW57941   0.448   1.943   1.743
18645SOL    HW157942   0.423   2.033   1.764
18645SOL    HW257943   0.472   1.946   1.650
18646SOL     OW57944   2.233   2.913   4.110
18646SOL    HW157945   2.322   2.945   4.124
18646SOL    HW257946   2.191   2.921   4.195
18647SOL     OW57947   8.481   0.355   2.762
18647SOL    HW157948   8.528   0.288   2.811
18647SOL    HW257949   8.472   0.318   2.674
18648SOL     OW57950   7.207   5.699   3.494
18648SOL    HW157951   7.170   5.684   3.581
18648SOL    HW257952   7.289   5.650   3.494
18649SOL     OW57953   7.972   0.648   0.332
18649SOL    HW157954   8.036   0.644   0.260
18649SOL    HW257955   7.890   0.621   0.292
18650SOL     OW57956  10.495   4.849   3.396
18650SOL    HW157957  10.532   4.811   3.316
18650SOL    HW257958  10.404   4.869   3.373
18651SOL     OW57959   4.628   8.897  11.010
18651SOL    HW157960   4.536   8.886  10.986
18651SOL    HW257961   4.671   8.818  10.975
18652SOL     OW57962   2.258   6.666   6.665
18652SOL    HW157963   2.237   6.642   6.755
18652SOL    HW257964   2.212   6.600   6.612
18653SOL     OW57965   4.015   2.037   9.619
18653SOL    HW157966   4.035   2.120   9.577
18653SOL    HW257967   3.971   1.986   9.551
18654SOL     OW57968   9.364   6.835  10.101
18654SOL    HW157969   9.369   6.764  10.165
18654SOL    HW257970   9.427   6.900  10.132
18655SOL     OW57971   3.157   2.473   8.125
18655SOL    HW157972   3.204   2.499   8.046
18655SOL    HW257973   3.067   2.502   8.110
18656SOL     OW57974   8.937   4.475   1.020
18656SOL    HW157975   8.859   4.523   0.992
18656SOL    HW257976   8.916   4.383   1.004
18657SOL     OW57977   3.129   2.029   5.712
18657SOL    HW157978   3.060   1.964   5.726
18657SOL    HW257979   3.179   2.029   5.793
18658SOL     OW57980   2.649   4.706   1.656
18658SOL    HW157981   2.694   4.709   1.571
18658SOL    HW257982   2.558   4.729   1.636
18659SOL     OW57983   6.032   5.484   0.162
18659SOL    HW157984   5.938   5.488   0.179
18659SOL    HW257985   6.061   5.575   0.162
18660SOL     OW57986   1.107   2.177   7.712
18660SOL    HW157987   1.090   2.232   7.788
18660SOL    HW257988   1.138   2.237   7.644
18661SOL     OW57989   3.633  10.419   5.410
18661SOL    HW157990   3.596  10.506   5.425
18661SOL    HW257991   3.618  10.372   5.492
18662SOL     OW57992   5.884  10.362   9.838
18662SOL    HW157993   5.943  10.296   9.801
18662SOL    HW257994   5.847  10.406   9.761
18663SOL     OW57995   0.685   3.909   2.511
18663SOL    HW157996   0.751   3.970   2.479
18663SOL    HW257997   0.679   3.927   2.605
18664SOL     OW57998   6.521   3.080   2.547
18664SOL    HW157999   6.611   3.069   2.579
18664SOL    HW258000   6.525   3.156   2.489
18665SOL     OW58001   4.603   9.470   9.270
18665SOL    HW158002   4.652   9.442   9.347
18665SOL    HW258003   4.634   9.559   9.252
18666SOL     OW58004  10.436  10.852   1.792
18666SOL    HW158005  10.514  10.885   1.837
18666SOL    HW258006  10.431  10.904   1.712
18667SOL     OW58007   6.533   5.950   0.223
18667SOL    HW158008   6.439   5.965   0.216
18667SOL    HW258009   6.541   5.861   0.259
18668SOL     OW58010   5.357   5.696   4.782
18668SOL    HW158011   5.432   5.723   4.835
18668SOL    HW258012   5.355   5.600   4.791
18669SOL     OW58013   5.155   7.672   2.277
18669SOL    HW158014   5.070   7.708   2.303
18669SOL    HW258015   5.219   7.721   2.329
18670SOL     OW58016   9.415   4.292   5.715
18670SOL    HW158017   9.419   4.303   5.620
18670SOL    HW258018   9.443   4.201   5.729
18671SOL     OW58019   6.152   7.489   0.025
18671SOL    HW158020   6.240   7.503   0.060
18671SOL    HW258021   6.166   7.442  -0.057
18672SOL     OW58022   9.468   8.420   4.765
18672SOL    HW158023   9.546   8.474   4.753
18672SOL    HW258024   9.468   8.362   4.689
18673SOL     OW58025   3.055   0.710   5.527
18673SOL    HW158026   3.078   0.671   5.442
18673SOL    HW258027   3.110   0.788   5.533
18674SOL     OW58028   1.221   9.320   1.166
18674SOL    HW158029   1.278   9.393   1.190
18674SOL    HW258030   1.261   9.243   1.208
18675SOL     OW58031   5.540   8.931   6.829
18675SOL    HW158032   5.496   8.937   6.744
18675SOL    HW258033   5.470   8.910   6.890
18676SOL     OW58034   4.936   5.020   3.418
18676SOL    HW158035   4.995   5.087   3.452
18676SOL    HW258036   4.862   5.069   3.383
18677SOL     OW58037   6.373   7.499   3.444
18677SOL    HW158038   6.376   7.560   3.518
18677SOL    HW258039   6.280   7.488   3.425
18678SOL     OW58040   4.910   2.298   2.261
18678SOL    HW158041   4.928   2.217   2.213
18678SOL    HW258042   4.826   2.328   2.227
18679SOL     OW58043   4.461   8.668   4.935
18679SOL    HW158044   4.440   8.575   4.926
18679SOL    HW258045   4.556   8.670   4.944
18680SOL     OW58046   5.471  10.264   3.476
18680SOL    HW158047   5.555  10.291   3.438
18680SOL    HW258048   5.487  10.263   3.570
18681SOL     OW58049   7.351   4.949   4.258
18681SOL    HW158050   7.257   4.937   4.242
18681SOL    HW258051   7.364   5.043   4.253
18682SOL     OW58052   2.466   6.680   3.055
18682SOL    HW158053   2.469   6.629   3.136
18682SOL    HW258054   2.483   6.615   2.986
18683SOL     OW58055   8.044   9.013   9.729
18683SOL    HW158056   8.036   9.044   9.819
18683SOL    HW258057   7.979   9.063   9.680
18684SOL     OW58058   5.776   3.656   7.344
18684SOL    HW158059   5.792   3.732   7.400
18684SOL    HW258060   5.688   3.670   7.309
18685SOL     OW58061   5.648   3.768   3.350
18685SOL    HW158062   5.634   3.854   3.388
18685SOL    HW258063   5.625   3.706   3.420
18686SOL     OW58064   3.929   4.345   9.075
18686SOL    HW158065   3.892   4.404   9.009
18686SOL    HW258066   4.016   4.380   9.093
18687SOL     OW58067   2.117   9.259   0.738
18687SOL    HW158068   2.142   9.303   0.819
18687SOL    HW258069   2.102   9.168   0.763
18688SOL     OW58070   2.407   0.300   9.634
18688SOL    HW158071   2.426   0.244   9.709
18688SOL    HW258072   2.333   0.354   9.661
18689SOL     OW58073   5.507   4.428   6.331
18689SOL    HW158074   5.530   4.505   6.382
18689SOL    HW258075   5.581   4.415   6.271
18690SOL     OW58076   9.133   6.059   5.497
18690SOL    HW158077   9.177   6.123   5.441
18690SOL    HW258078   9.082   6.111   5.559
18691SOL     OW58079   9.009   7.497   2.237
18691SOL    HW158080   8.943   7.565   2.252
18691SOL    HW258081   8.975   7.420   2.283
18692SOL     OW58082   2.158   3.925   1.718
18692SOL    HW158083   2.160   3.849   1.777
18692SOL    HW258084   2.250   3.945   1.701
18693SOL     OW58085   8.690   6.539  10.942
18693SOL    HW158086   8.760   6.604  10.939
18693SOL    HW258087   8.609   6.589  10.931
18694SOL     OW58088   6.813   1.002   5.561
18694SOL    HW158089   6.884   1.065   5.574
18694SOL    HW258090   6.749   1.049   5.508
18695SOL     OW58091   3.993   1.415   4.961
18695SOL    HW158092   3.962   1.468   5.034
18695SOL    HW258093   3.979   1.469   4.883
18696SOL     OW58094   3.127  10.826   5.959
18696SOL    HW158095   3.080  10.797   6.037
18696SOL    HW258096   3.200  10.765   5.951
18697SOL     OW58097   5.033   7.025   5.764
18697SOL    HW158098   5.018   6.959   5.695
18697SOL    HW258099   5.126   7.016   5.785
18698SOL     OW58100   3.463   1.789   5.303
18698SOL    HW158101   3.493   1.842   5.377
18698SOL    HW258102   3.542   1.744   5.272
18699SOL     OW58103   6.785   9.623   0.065
18699SOL    HW158104   6.698   9.662   0.066
18699SOL    HW258105   6.771   9.532   0.039
18700SOL     OW58106   2.362   4.231   7.995
18700SOL    HW158107   2.430   4.291   8.025
18700SOL    HW258108   2.281   4.280   8.002
18701SOL     OW58109   4.637   8.601   4.407
18701SOL    HW158110   4.701   8.548   4.454
18701SOL    HW258111   4.668   8.601   4.316
18702SOL     OW58112  10.803   2.868   7.466
18702SOL    HW158113  10.863   2.828   7.403
18702SOL    HW258114  10.814   2.962   7.453
18703SOL     OW58115   6.752   8.690   9.798
18703SOL    HW158116   6.711   8.723   9.718
18703SOL    HW258117   6.835   8.652   9.768
18704SOL     OW58118   0.755   8.663   5.078
18704SOL    HW158119   0.669   8.704   5.086
18704SOL    HW258120   0.738   8.569   5.091
18705SOL     OW58121   8.613   9.075   3.125
18705SOL    HW158122   8.524   9.082   3.159
18705SOL    HW258123   8.604   9.087   3.030
18706SOL     OW58124   5.418   4.483   2.136
18706SOL    HW158125   5.452   4.560   2.091
18706SOL    HW258126   5.495   4.442   2.175
18707SOL     OW58127   0.533   5.399  10.398
18707SOL    HW158128   0.564   5.359  10.479
18707SOL    HW258129   0.442   5.422  10.416
18708SOL     OW58130   2.305   0.639   3.625
18708SOL    HW158131   2.300   0.697   3.701
18708SOL    HW258132   2.268   0.556   3.655
18709SOL     OW58133   2.253   5.589   1.298
18709SOL    HW158134   2.321   5.656   1.304
18709SOL    HW258135   2.295   5.518   1.248
18710SOL     OW58136  10.904   6.265   0.708
18710SOL    HW158137  10.986   6.310   0.689
18710SOL    HW258138  10.922   6.173   0.688
18711SOL     OW58139   9.808   9.870   4.035
18711SOL    HW158140   9.859   9.946   4.061
18711SOL    HW258141   9.766   9.840   4.115
18712SOL     OW58142   0.663   5.886  10.859
18712SOL    HW158143   0.714   5.805  10.850
18712SOL    HW258144   0.644   5.892  10.952
18713SOL     OW58145   5.776   3.610   4.592
18713SOL    HW158146   5.735   3.566   4.666
18713SOL    HW258147   5.721   3.587   4.517
18714SOL     OW58148   2.742   1.792   5.898
18714SOL    HW158149   2.729   1.734   5.973
18714SOL    HW258150   2.747   1.732   5.823
18715SOL     OW58151  10.834   1.162   8.690
18715SOL    HW158152  10.756   1.119   8.655
18715SOL    HW258153  10.865   1.217   8.618
18716SOL     OW58154   3.037   3.782   5.092
18716SOL    HW158155   2.998   3.797   5.178
18716SOL    HW258156   3.030   3.687   5.079
18717SOL     OW58157   5.770   8.382   5.013
18717SOL    HW158158   5.783   8.326   5.090
18717SOL    HW258159   5.712   8.452   5.043
18718SOL     OW58160   2.559   1.783   1.993
18718SOL    HW158161   2.564   1.688   2.008
18718SOL    HW258162   2.467   1.805   2.006
18719SOL     OW58163  10.035   3.239   5.420
18719SOL    HW158164  10.063   3.148   5.428
18719SOL    HW258165  10.104   3.281   5.369
18720SOL     OW58166   1.438   7.009   7.118
18720SOL    HW158167   1.372   6.941   7.103
18720SOL    HW258168   1.481   7.020   7.033
18721SOL     OW58169   1.978   4.530   8.004
18721SOL    HW158170   2.040   4.586   7.957
18721SOL    HW258171   1.941   4.474   7.936
18722SOL     OW58172   8.897   4.308   5.064
18722SOL    HW158173   8.888   4.364   4.987
18722SOL    HW258174   8.957   4.239   5.036
18723SOL     OW58175   8.981   8.244   2.737
18723SOL    HW158176   8.944   8.282   2.816
18723SOL    HW258177   8.906   8.204   2.693
18724SOL     OW58178   3.599   6.652   7.887
18724SOL    HW158179   3.664   6.721   7.901
18724SOL    HW258180   3.591   6.609   7.972
18725SOL     OW58181   5.913  10.697   6.290
18725SOL    HW158182   5.914  10.652   6.205
18725SOL    HW258183   6.006  10.708   6.312
18726SOL     OW58184   3.126   1.850   4.084
18726SOL    HW158185   3.207   1.901   4.083
18726SOL    HW258186   3.113   1.827   4.176
18727SOL     OW58187   4.005  10.236   1.027
18727SOL    HW158188   4.044  10.273   1.106
18727SOL    HW258189   4.080  10.207   0.974
18728SOL     OW58190   0.483   5.939   2.869
18728SOL    HW158191   0.490   5.974   2.780
18728SOL    HW258192   0.558   5.880   2.877
18729SOL     OW58193   3.245   6.449   4.634
18729SOL    HW158194   3.215   6.484   4.717
18729SOL    HW258195   3.265   6.526   4.581
18730SOL     OW58196  10.159   0.730   5.833
18730SOL    HW158197  10.139   0.643   5.797
18730SOL    HW258198  10.245   0.752   5.796
18731SOL     OW58199   7.374   0.386   4.914
18731SOL    HW158200   7.401   0.460   4.968
18731SOL    HW258201   7.286   0.364   4.943
18732SOL     OW58202   9.232  10.144   4.247
18732SOL    HW158203   9.169  10.163   4.178
18732SOL    HW258204   9.310  10.115   4.200
18733SOL     OW58205   5.217   1.799   0.409
18733SOL    HW158206   5.239   1.709   0.434
18733SOL    HW258207   5.142   1.821   0.463
18734SOL     OW58208  10.162   2.925   6.619
18734SOL    HW158209  10.200   2.839   6.638
18734SOL    HW258210  10.151   2.966   6.704
18735SOL     OW58211   0.129   3.150   2.753
18735SOL    HW158212   0.148   3.233   2.709
18735SOL    HW258213   0.169   3.083   2.697
18736SOL     OW58214   4.398   0.255   8.906
18736SOL    HW158215   4.474   0.219   8.952
18736SOL    HW258216   4.419   0.347   8.894
18737SOL     OW58217   6.496   8.459   6.474
18737SOL    HW158218   6.418   8.442   6.526
18737SOL    HW258219   6.463   8.476   6.385
18738SOL     OW58220   5.675   6.046   0.974
18738SOL    HW158221   5.697   5.965   1.020
18738SOL    HW258222   5.636   6.102   1.041
18739SOL     OW58223   5.378   8.092   7.007
18739SOL    HW158224   5.310   8.159   7.005
18739SOL    HW258225   5.403   8.086   7.099
18740SOL     OW58226   3.975   9.449   0.947
18740SOL    HW158227   4.021   9.365   0.954
18740SOL    HW258228   4.043   9.515   0.962
18741SOL     OW58229   7.684   7.256  11.018
18741SOL    HW158230   7.741   7.233  10.944
18741SOL    HW258231   7.640   7.174  11.040
18742SOL     OW58232   8.204   6.287  10.971
18742SOL    HW158233   8.267   6.339  11.021
18742SOL    HW258234   8.140   6.258  11.035
18743SOL     OW58235   5.614   5.040   3.434
18743SOL    HW158236   5.552   5.002   3.372
18743SOL    HW258237   5.565   5.047   3.516
18744SOL     OW58238   6.740   4.399   2.599
18744SOL    HW158239   6.699   4.481   2.624
18744SOL    HW258240   6.768   4.412   2.508
18745SOL     OW58241   0.710   8.381   8.048
18745SOL    HW158242   0.742   8.298   8.083
18745SOL    HW258243   0.684   8.431   8.125
18746SOL     OW58244   6.405   5.702   1.852
18746SOL    HW158245   6.409   5.706   1.756
18746SOL    HW258246   6.356   5.780   1.877
18747SOL     OW58247   6.826   7.183  10.323
18747SOL    HW158248   6.850   7.233  10.401
18747SOL    HW258249   6.847   7.241  10.250
18748SOL     OW58250   6.743   7.699   2.393
18748SOL    HW158251   6.825   7.732   2.356
18748SOL    HW258252   6.723   7.758   2.465
18749SOL     OW58253   8.226   3.054   4.187
18749SOL    HW158254   8.260   3.050   4.097
18749SOL    HW258255   8.232   2.964   4.219
18750SOL     OW58256   1.640   6.691   8.524
18750SOL    HW158257   1.670   6.652   8.606
18750SOL    HW258258   1.721   6.713   8.477
18751SOL     OW58259   6.449   0.536  11.014
18751SOL    HW158260   6.540   0.536  10.985
18751SOL    HW258261   6.410   0.611  10.970
18752SOL     OW58262   7.659   0.131   7.725
18752SOL    HW158263   7.593   0.105   7.789
18752SOL    HW258264   7.638   0.222   7.705
18753SOL     OW58265   9.212   8.965   3.471
18753SOL    HW158266   9.238   8.891   3.415
18753SOL    HW258267   9.246   8.942   3.557
18754SOL     OW58268   1.202   2.492   4.381
18754SOL    HW158269   1.197   2.421   4.317
18754SOL    HW258270   1.259   2.458   4.450
18755SOL     OW58271   7.062   4.874   4.656
18755SOL    HW158272   7.083   4.967   4.651
18755SOL    HW258273   7.010   4.864   4.736
18756SOL     OW58274   2.192  11.018   0.259
18756SOL    HW158275   2.206  10.986   0.170
18756SOL    HW258276   2.209  10.942   0.315
18757SOL     OW58277   6.488   8.005   1.576
18757SOL    HW158278   6.404   8.051   1.573
18757SOL    HW258279   6.473   7.930   1.633
18758SOL     OW58280   6.767   7.869   7.378
18758SOL    HW158281   6.712   7.873   7.299
18758SOL    HW258282   6.723   7.924   7.442
18759SOL     OW58283   8.581  10.454   3.973
18759SOL    HW158284   8.537  10.377   3.938
18759SOL    HW258285   8.527  10.481   4.047
18760SOL     OW58286   3.692   8.956   0.777
18760SOL    HW158287   3.678   9.012   0.853
18760SOL    HW258288   3.605   8.947   0.738
18761SOL     OW58289   2.140   7.570   2.563
18761SOL    HW158290   2.048   7.591   2.550
18761SOL    HW258291   2.187   7.637   2.514
18762SOL     OW58292   2.493   8.683   3.980
18762SOL    HW158293   2.554   8.748   4.014
18762SOL    HW258294   2.428   8.733   3.932
18763SOL     OW58295   8.501   1.948   0.417
18763SOL    HW158296   8.439   2.019   0.402
18763SOL    HW258297   8.447   1.874   0.447
18764SOL     OW58298   6.989   6.804   5.273
18764SOL    HW158299   6.992   6.709   5.288
18764SOL    HW258300   6.973   6.842   5.359
18765SOL     OW58301  10.988  10.778   2.736
18765SOL    HW158302  11.074  10.797   2.697
18765SOL    HW258303  10.985  10.683   2.742
18766SOL     OW58304   9.868   6.761   7.953
18766SOL    HW158305   9.831   6.679   7.919
18766SOL    HW258306   9.898   6.738   8.041
18767SOL     OW58307   3.980   2.978   6.746
18767SOL    HW158308   4.005   2.978   6.838
18767SOL    HW258309   3.951   3.067   6.728
18768SOL     OW58310   5.878   5.755   1.352
18768SOL    HW158311   5.844   5.842   1.370
18768SOL    HW258312   5.971   5.760   1.376
18769SOL     OW58313   2.853   4.814   4.266
18769SOL    HW158314   2.867   4.749   4.335
18769SOL    HW258315   2.854   4.898   4.311
18770SOL     OW58316   9.035  10.439   0.053
18770SOL    HW158317   8.959  10.496   0.054
18770SOL    HW258318   9.067  10.443  -0.037
18771SOL     OW58319   2.273   2.934   5.720
18771SOL    HW158320   2.208   2.995   5.687
18771SOL    HW258321   2.357   2.979   5.709
18772SOL     OW58322   4.047   5.978   4.696
18772SOL    HW158323   3.987   5.909   4.665
18772SOL    HW258324   3.992   6.036   4.749
18773SOL     OW58325   3.847   7.933   2.933
18773SOL    HW158326   3.784   8.005   2.930
18773SOL    HW258327   3.849   7.899   2.843
18774SOL     OW58328   5.555   1.716   5.474
18774SOL    HW158329   5.537   1.628   5.507
18774SOL    HW258330   5.572   1.768   5.552
18775SOL     OW58331   9.372   2.071   1.302
18775SOL    HW158332   9.281   2.100   1.297
18775SOL    HW258333   9.387   2.026   1.219
18776SOL     OW58334   2.696   5.764   5.290
18776SOL    HW158335   2.651   5.777   5.373
18776SOL    HW258336   2.773   5.712   5.312
18777SOL     OW58337   4.628   3.265   5.298
18777SOL    HW158338   4.653   3.273   5.206
18777SOL    HW258339   4.540   3.301   5.302
18778SOL     OW58340   3.980   8.227  10.676
18778SOL    HW158341   3.969   8.307  10.624
18778SOL    HW258342   3.936   8.159  10.625
18779SOL     OW58343   1.137   8.959   7.381
18779SOL    HW158344   1.193   9.002   7.445
18779SOL    HW258345   1.189   8.958   7.301
18780SOL     OW58346   9.238   7.575   3.106
18780SOL    HW158347   9.255   7.483   3.128
18780SOL    HW258348   9.144   7.586   3.121
18781SOL     OW58349  10.715   5.501   1.348
18781SOL    HW158350  10.730   5.580   1.297
18781SOL    HW258351  10.749   5.430   1.293
18782SOL     OW58352   1.423   3.762   3.758
18782SOL    HW158353   1.395   3.832   3.700
18782SOL    HW258354   1.416   3.683   3.704
18783SOL     OW58355   2.976   5.527   3.526
18783SOL    HW158356   2.979   5.462   3.596
18783SOL    HW258357   3.060   5.518   3.481
18784SOL     OW58358   9.803   8.428   5.582
18784SOL    HW158359   9.755   8.509   5.567
18784SOL    HW258360   9.813   8.423   5.677
18785SOL     OW58361   8.009   9.871   9.453
18785SOL    HW158362   8.060   9.854   9.532
18785SOL    HW258363   7.965   9.954   9.469
18786SOL     OW58364   7.144  10.012   0.426
18786SOL    HW158365   7.077  10.009   0.358
18786SOL    HW258366   7.118  10.084   0.483
18787SOL     OW58367   1.262   1.172  11.014
18787SOL    HW158368   1.235   1.146  11.102
18787SOL    HW258369   1.291   1.090  10.973
18788SOL     OW58370   1.727   5.070   2.315
18788SOL    HW158371   1.800   5.029   2.268
18788SOL    HW258372   1.697   5.002   2.376
18789SOL     OW58373   4.693   8.052   4.415
18789SOL    HW158374   4.631   8.047   4.342
18789SOL    HW258375   4.641   8.083   4.488
18790SOL     OW58376   8.736   7.574   6.475
18790SOL    HW158377   8.755   7.539   6.388
18790SOL    HW258378   8.822   7.592   6.513
18791SOL     OW58379   3.784   2.172   8.825
18791SOL    HW158380   3.744   2.115   8.891
18791SOL    HW258381   3.854   2.118   8.787
18792SOL     OW58382   3.911   8.559   9.831
18792SOL    HW158383   4.006   8.567   9.837
18792SOL    HW258384   3.889   8.489   9.893
18793SOL     OW58385   6.865   9.346   6.508
18793SOL    HW158386   6.920   9.408   6.556
18793SOL    HW258387   6.860   9.381   6.419
18794SOL     OW58388  10.044   0.919  10.898
18794SOL    HW158389  10.006   0.831  10.901
18794SOL    HW258390  10.134   0.904  10.868
18795SOL     OW58391   5.709   8.650   4.505
18795SOL    HW158392   5.740   8.593   4.575
18795SOL    HW258393   5.645   8.708   4.547
18796SOL     OW58394   0.233   3.639   1.984
18796SOL    HW158395   0.236   3.689   1.902
18796SOL    HW258396   0.142   3.610   1.991
18797SOL     OW58397   8.105   2.445   2.248
18797SOL    HW158398   8.175   2.379   2.246
18797SOL    HW258399   8.026   2.397   2.222
18798SOL     OW58400   9.741   5.247   9.545
18798SOL    HW158401   9.654   5.264   9.581
18798SOL    HW258402   9.724   5.207   9.459
18799SOL     OW58403   2.077   1.805   4.586
18799SOL    HW158404   2.008   1.851   4.538
18799SOL    HW258405   2.158   1.847   4.557
18800SOL     OW58406   2.278   3.710   7.801
18800SOL    HW158407   2.308   3.800   7.795
18800SOL    HW258408   2.184   3.714   7.785
18801SOL     OW58409   6.550   6.055   2.615
18801SOL    HW158410   6.511   6.116   2.552
18801SOL    HW258411   6.488   6.053   2.688
18802SOL     OW58412   3.662   4.974   9.069
18802SOL    HW158413   3.719   4.990   8.993
18802SOL    HW258414   3.720   4.985   9.144
18803SOL     OW58415   7.431  10.512   6.237
18803SOL    HW158416   7.457  10.531   6.147
18803SOL    HW258417   7.497  10.556   6.291
18804SOL     OW58418   4.781   6.927   2.671
18804SOL    HW158419   4.791   6.908   2.764
18804SOL    HW258420   4.817   6.850   2.627
18805SOL     OW58421   1.701   3.201   6.355
18805SOL    HW158422   1.732   3.114   6.382
18805SOL    HW258423   1.606   3.195   6.361
18806SOL     OW58424   4.739   3.541   6.782
18806SOL    HW158425   4.785   3.579   6.707
18806SOL    HW258426   4.669   3.489   6.743
18807SOL     OW58427   4.083   8.728   5.499
18807SOL    HW158428   4.153   8.689   5.552
18807SOL    HW258429   4.025   8.771   5.562
18808SOL     OW58430  10.882   1.439   3.663
18808SOL    HW158431  10.807   1.379   3.665
18808SOL    HW258432  10.854   1.514   3.715
18809SOL     OW58433   2.255   6.064   2.939
18809SOL    HW158434   2.193   6.115   2.888
18809SOL    HW258435   2.338   6.110   2.929
18810SOL     OW58436   3.121   7.966   4.542
18810SOL    HW158437   3.108   7.959   4.447
18810SOL    HW258438   3.145   7.877   4.569
18811SOL     OW58439   5.166   7.808   1.050
18811SOL    HW158440   5.107   7.882   1.061
18811SOL    HW258441   5.142   7.747   1.119
18812SOL     OW58442   0.963   5.678   9.428
18812SOL    HW158443   1.026   5.691   9.357
18812SOL    HW258444   0.997   5.730   9.501
18813SOL     OW58445   1.560   4.008   1.353
18813SOL    HW158446   1.475   4.048   1.368
18813SOL    HW258447   1.620   4.081   1.343
18814SOL     OW58448   5.607   4.659   3.509
18814SOL    HW158449   5.573   4.607   3.582
18814SOL    HW258450   5.701   4.667   3.526
18815SOL     OW58451   2.786   7.153   2.573
18815SOL    HW158452   2.756   7.122   2.658
18815SOL    HW258453   2.865   7.204   2.592
18816SOL     OW58454   1.635   5.567   2.804
18816SOL    HW158455   1.575   5.493   2.814
18816SOL    HW258456   1.714   5.529   2.765
18817SOL     OW58457   4.220   9.263   7.951
18817SOL    HW158458   4.129   9.252   7.978
18817SOL    HW258459   4.242   9.353   7.974
18818SOL     OW58460   6.786   8.968   7.175
18818SOL    HW158461   6.751   8.925   7.096
18818SOL    HW258462   6.783   9.061   7.155
18819SOL     OW58463   1.385   3.672   4.017
18819SOL    HW158464   1.364   3.581   3.995
18819SOL    HW258465   1.368   3.720   3.936
18820SOL     OW58466   8.928   2.850   5.771
18820SOL    HW158467   8.945   2.773   5.826
18820SOL    HW258468   8.908   2.920   5.832
18821SOL     OW58469   6.252   7.224   2.456
18821SOL    HW158470   6.283   7.314   2.464
18821SOL    HW258471   6.320   7.180   2.405
18822SOL     OW58472   9.219  10.606   6.352
18822SOL    HW158473   9.134  10.612   6.395
18822SOL    HW258474   9.282  10.598   6.423
18823SOL     OW58475   4.666   2.779   1.946
18823SOL    HW158476   4.592   2.746   1.997
18823SOL    HW258477   4.705   2.700   1.908
18824SOL     OW58478   6.637   2.260   6.253
18824SOL    HW158479   6.594   2.253   6.338
18824SOL    HW258480   6.703   2.191   6.254
18825SOL     OW58481   4.756  10.006   5.509
18825SOL    HW158482   4.828   9.987   5.448
18825SOL    HW258483   4.795   9.995   5.595
18826SOL     OW58484   9.466   9.653   4.137
18826SOL    HW158485   9.430   9.594   4.203
18826SOL    HW258486   9.468   9.600   4.057
18827SOL     OW58487   9.554   0.169   5.722
18827SOL    HW158488   9.481   0.153   5.662
18827SOL    HW258489   9.631   0.134   5.676
18828SOL     OW58490   2.913   7.550   9.886
18828SOL    HW158491   2.906   7.645   9.890
18828SOL    HW258492   2.928   7.522   9.976
18829SOL     OW58493   8.957   2.402   3.966
18829SOL    HW158494   8.904   2.455   3.906
18829SOL    HW258495   8.912   2.407   4.050
18830SOL     OW58496   3.147   4.991   4.581
18830SOL    HW158497   3.167   4.981   4.674
18830SOL    HW258498   3.198   5.067   4.553
18831SOL     OW58499   2.376   0.183   5.074
18831SOL    HW158500   2.295   0.197   5.025
18831SOL    HW258501   2.446   0.199   5.010
18832SOL     OW58502   8.754   9.605   9.771
18832SOL    HW158503   8.823   9.629   9.709
18832SOL    HW258504   8.723   9.688   9.807
18833SOL     OW58505   5.027   3.183   4.577
18833SOL    HW158506   5.084   3.112   4.545
18833SOL    HW258507   5.047   3.189   4.670
18834SOL     OW58508   6.724   8.940   0.746
18834SOL    HW158509   6.723   8.957   0.840
18834SOL    HW258510   6.632   8.940   0.720
18835SOL     OW58511   9.339   9.021   9.021
18835SOL    HW158512   9.256   9.052   8.986
18835SOL    HW258513   9.403   9.085   8.990
18836SOL     OW58514   4.740   1.468   7.458
18836SOL    HW158515   4.660   1.517   7.442
18836SOL    HW258516   4.810   1.532   7.448
18837SOL     OW58517   5.560   3.128   8.245
18837SOL    HW158518   5.651   3.112   8.220
18837SOL    HW258519   5.523   3.174   8.169
18838SOL     OW58520   6.645  10.964   0.295
18838SOL    HW158521   6.628  11.002   0.381
18838SOL    HW258522   6.680  10.877   0.314
18839SOL     OW58523   0.831   7.658   4.667
18839SOL    HW158524   0.892   7.671   4.594
18839SOL    HW258525   0.846   7.567   4.694
18840SOL     OW58526   1.923   7.452   2.425
18840SOL    HW158527   1.959   7.468   2.337
18840SOL    HW258528   1.940   7.359   2.441
18841SOL     OW58529   7.733   0.321  11.012
18841SOL    HW158530   7.690   0.284  11.089
18841SOL    HW258531   7.663   0.365  10.964
18842SOL     OW58532   3.145   8.500   3.166
18842SOL    HW158533   3.192   8.443   3.105
18842SOL    HW258534   3.101   8.440   3.226
18843SOL     OW58535   5.897   2.909   3.859
18843SOL    HW158536   5.928   2.965   3.930
18843SOL    HW258537   5.968   2.846   3.845
18844SOL     OW58538   3.454   8.032   1.969
18844SOL    HW158539   3.514   8.090   2.016
18844SOL    HW258540   3.505   8.000   1.894
18845SOL     OW58541   3.792   7.707   3.085
18845SOL    HW158542   3.825   7.779   3.031
18845SOL    HW258543   3.787   7.743   3.173
18846SOL     OW58544   4.885   2.649   6.161
18846SOL    HW158545   4.932   2.701   6.095
18846SOL    HW258546   4.941   2.572   6.174
18847SOL     OW58547   0.251  10.373   5.900
18847SOL    HW158548   0.323  10.311   5.908
18847SOL    HW258549   0.195  10.335   5.832
18848SOL     OW58550  10.216   4.683   8.420
18848SOL    HW158551  10.278   4.654   8.353
18848SOL    HW258552  10.225   4.778   8.422
18849SOL     OW58553   5.117   4.934   2.627
18849SOL    HW158554   5.025   4.910   2.637
18849SOL    HW258555   5.120   4.986   2.546
18850SOL     OW58556   2.654   6.703   3.294
18850SOL    HW158557   2.583   6.639   3.289
18850SOL    HW258558   2.731   6.651   3.318
18851SOL     OW58559   2.261   3.381  11.012
18851SOL    HW158560   2.275   3.332  10.930
18851SOL    HW258561   2.205   3.454  10.987
18852SOL     OW58562  10.517   3.365   6.191
18852SOL    HW158563  10.441   3.422   6.200
18852SOL    HW258564  10.588   3.412   6.235
18853SOL     OW58565   2.086   9.558   0.305
18853SOL    HW158566   2.070   9.476   0.257
18853SOL    HW258567   2.084   9.532   0.397
18854SOL     OW58568   4.345   6.455   4.106
18854SOL    HW158569   4.430   6.427   4.072
18854SOL    HW258570   4.323   6.389   4.172
18855SOL     OW58571   4.522  10.642   7.808
18855SOL    HW158572   4.579  10.705   7.763
18855SOL    HW258573   4.575  10.562   7.813
18856SOL     OW58574   4.887   5.804   8.049
18856SOL    HW158575   4.908   5.810   7.955
18856SOL    HW258576   4.794   5.783   8.051
18857SOL     OW58577   0.619   7.471   4.487
18857SOL    HW158578   0.683   7.511   4.546
18857SOL    HW258579   0.612   7.380   4.517
18858SOL     OW58580   4.173   9.416   2.506
18858SOL    HW158581   4.230   9.342   2.527
18858SOL    HW258582   4.114   9.382   2.438
18859SOL     OW58583   1.316   7.733   0.654
18859SOL    HW158584   1.389   7.770   0.703
18859SOL    HW258585   1.350   7.651   0.618
18860SOL     OW58586   6.463   3.795   4.836
18860SOL    HW158587   6.550   3.777   4.871
18860SOL    HW258588   6.475   3.873   4.782
18861SOL     OW58589   6.081   0.212   7.949
18861SOL    HW158590   6.062   0.175   7.862
18861SOL    HW258591   6.084   0.136   8.007
18862SOL     OW58592   5.431   9.390   0.085
18862SOL    HW158593   5.354   9.342   0.054
18862SOL    HW258594   5.505   9.349   0.040
18863SOL     OW58595   7.486   4.858   2.446
18863SOL    HW158596   7.542   4.811   2.508
18863SOL    HW258597   7.523   4.946   2.442
18864SOL     OW58598  10.671   7.706   7.253
18864SOL    HW158599  10.637   7.788   7.287
18864SOL    HW258600  10.593   7.656   7.229
18865SOL     OW58601   6.282   2.853   1.557
18865SOL    HW158602   6.304   2.769   1.517
18865SOL    HW258603   6.187   2.859   1.550
18866SOL     OW58604  10.312   4.473   1.732
18866SOL    HW158605  10.326   4.567   1.720
18866SOL    HW258606  10.301   4.439   1.643
18867SOL     OW58607   6.173   3.735   4.035
18867SOL    HW158608   6.255   3.716   4.080
18867SOL    HW258609   6.194   3.807   3.976
18868SOL     OW58610   5.144   0.727   2.871
18868SOL    HW158611   5.136   0.805   2.926
18868SOL    HW258612   5.238   0.707   2.871
18869SOL     OW58613   2.096   5.848   2.020
18869SOL    HW158614   2.135   5.927   1.983
18869SOL    HW258615   2.022   5.829   1.962
18870SOL     OW58616   6.792   0.235   7.246
18870SOL    HW158617   6.702   0.246   7.216
18870SOL    HW258618   6.785   0.230   7.341
18871SOL     OW58619   0.352   5.704   3.442
18871SOL    HW158620   0.362   5.736   3.531
18871SOL    HW258621   0.301   5.772   3.398
18872SOL     OW58622   8.173   5.479   7.135
18872SOL    HW158623   8.150   5.452   7.224
18872SOL    HW258624   8.120   5.423   7.078
18873SOL     OW58625   5.050   6.659   5.004
18873SOL    HW158626   4.996   6.607   5.063
18873SOL    HW258627   5.140   6.635   5.027
18874SOL     OW58628   7.469   9.218   8.035
18874SOL    HW158629   7.497   9.141   7.984
18874SOL    HW258630   7.395   9.253   7.986
18875SOL     OW58631   2.449   6.760   9.286
18875SOL    HW158632   2.411   6.718   9.363
18875SOL    HW258633   2.532   6.797   9.317
18876SOL     OW58634   1.931   9.310   2.806
18876SOL    HW158635   1.934   9.219   2.775
18876SOL    HW258636   1.865   9.352   2.751
18877SOL     OW58637   4.237   3.059   1.223
18877SOL    HW158638   4.235   3.060   1.318
18877SOL    HW258639   4.203   3.144   1.197
18878SOL     OW58640   4.466   4.348   4.009
18878SOL    HW158641   4.466   4.410   3.936
18878SOL    HW258642   4.553   4.357   4.048
18879SOL     OW58643   0.250  10.485   4.619
18879SOL    HW158644   0.241  10.428   4.695
18879SOL    HW258645   0.259  10.573   4.655
18880SOL     OW58646  10.437   5.061   4.658
18880SOL    HW158647  10.506   4.999   4.682
18880SOL    HW258648  10.434   5.123   4.730
18881SOL     OW58649   2.058   7.251   1.546
18881SOL    HW158650   1.978   7.223   1.591
18881SOL    HW258651   2.027   7.290   1.464
18882SOL     OW58652   6.919   7.452   4.161
18882SOL    HW158653   7.006   7.492   4.159
18882SOL    HW258654   6.932   7.364   4.125
18883SOL     OW58655   1.144   0.517   2.683
18883SOL    HW158656   1.223   0.467   2.660
18883SOL    HW258657   1.073   0.453   2.676
18884SOL     OW58658   1.817   3.541   3.890
18884SOL    HW158659   1.790   3.532   3.798
18884SOL    HW258660   1.805   3.634   3.910
18885SOL     OW58661   4.001   8.552   2.103
18885SOL    HW158662   3.974   8.555   2.194
18885SOL    HW258663   4.096   8.564   2.105
18886SOL     OW58664   0.191  10.462   7.409
18886SOL    HW158665   0.267  10.405   7.418
18886SOL    HW258666   0.204  10.506   7.325
18887SOL     OW58667   6.735  10.106   2.437
18887SOL    HW158668   6.738  10.042   2.365
18887SOL    HW258669   6.826  10.133   2.449
18888SOL     OW58670   6.409   1.615   5.977
18888SOL    HW158671   6.425   1.549   5.909
18888SOL    HW258672   6.370   1.688   5.930
18889SOL     OW58673   6.829   9.620   3.640
18889SOL    HW158674   6.762   9.674   3.598
18889SOL    HW258675   6.842   9.547   3.579
18890SOL     OW58676   4.005   7.798   0.285
18890SOL    HW158677   4.097   7.817   0.269
18890SOL    HW258678   4.000   7.702   0.285
18891SOL     OW58679   1.497   4.549   0.647
18891SOL    HW158680   1.439   4.625   0.641
18891SOL    HW258681   1.512   4.523   0.556
18892SOL     OW58682   7.359   5.604   7.675
18892SOL    HW158683   7.438   5.643   7.712
18892SOL    HW258684   7.335   5.662   7.603
18893SOL     OW58685   3.934   9.590  10.628
18893SOL    HW158686   3.889   9.593  10.543
18893SOL    HW258687   3.869   9.555  10.689
18894SOL     OW58688   7.585  10.685   2.806
18894SOL    HW158689   7.616  10.775   2.792
18894SOL    HW258690   7.567  10.652   2.718
18895SOL     OW58691  10.361   5.524   5.519
18895SOL    HW158692  10.312   5.490   5.444
18895SOL    HW258693  10.313   5.602   5.546
18896SOL     OW58694   0.777   9.659   4.935
18896SOL    HW158695   0.757   9.745   4.899
18896SOL    HW258696   0.771   9.600   4.859
18897SOL     OW58697   4.589   0.793   3.524
18897SOL    HW158698   4.665   0.850   3.514
18897SOL    HW258699   4.521   0.849   3.560
18898SOL     OW58700   2.046   8.852   1.311
18898SOL    HW158701   2.012   8.822   1.226
18898SOL    HW258702   2.089   8.774   1.348
18899SOL     OW58703   8.166   6.020   6.843
18899SOL    HW158704   8.231   6.007   6.774
18899SOL    HW258705   8.099   5.954   6.825
18900SOL     OW58706   6.653   4.813   5.409
18900SOL    HW158707   6.658   4.733   5.357
18900SOL    HW258708   6.744   4.843   5.415
18901SOL     OW58709   5.178   7.073   4.026
18901SOL    HW158710   5.104   7.013   4.012
18901SOL    HW258711   5.241   7.049   3.958
18902SOL     OW58712   5.154  10.995   2.348
18902SOL    HW158713   5.231  10.938   2.351
18902SOL    HW258714   5.089  10.944   2.300
18903SOL     OW58715   7.230   9.161   5.972
18903SOL    HW158716   7.141   9.196   5.964
18903SOL    HW258717   7.256   9.141   5.882
18904SOL     OW58718   1.250   7.840   9.030
18904SOL    HW158719   1.290   7.924   9.053
18904SOL    HW258720   1.197   7.817   9.106
18905SOL     OW58721   6.515   6.873   2.245
18905SOL    HW158722   6.510   6.968   2.244
18905SOL    HW258723   6.543   6.851   2.334
18906SOL     OW58724   6.071   7.049   4.894
18906SOL    HW158725   6.101   7.051   4.803
18906SOL    HW258726   6.121   7.118   4.937
18907SOL     OW58727   3.156   4.801   2.603
18907SOL    HW158728   3.113   4.850   2.673
18907SOL    HW258729   3.208   4.735   2.648
18908SOL     OW58730   3.735   2.157   4.965
18908SOL    HW158731   3.742   2.198   5.051
18908SOL    HW258732   3.732   2.063   4.983
18909SOL     OW58733   7.349   4.991   2.138
18909SOL    HW158734   7.321   4.946   2.218
18909SOL    HW258735   7.425   4.941   2.108
18910SOL     OW58736  10.385   7.019   7.191
18910SOL    HW158737  10.401   7.105   7.228
18910SOL    HW258738  10.342   7.036   7.107
18911SOL     OW58739   5.549   5.790   6.372
18911SOL    HW158740   5.644   5.776   6.370
18911SOL    HW258741   5.512   5.702   6.377
18912SOL     OW58742   2.475   8.856   4.228
18912SOL    HW158743   2.570   8.866   4.236
18912SOL    HW258744   2.445   8.939   4.192
18913SOL     OW58745   4.922   6.017   8.687
18913SOL    HW158746   4.974   6.056   8.757
18913SOL    HW258747   4.961   5.930   8.674
18914SOL     OW58748   9.885   8.043   6.120
18914SOL    HW158749   9.942   7.975   6.083
18914SOL    HW258750   9.814   8.052   6.056
18915SOL     OW58751   3.095   4.126   5.352
18915SOL    HW158752   3.174   4.080   5.382
18915SOL    HW258753   3.023   4.069   5.378
18916SOL     OW58754   3.983  10.954   7.251
18916SOL    HW158755   4.056  10.897   7.277
18916SOL    HW258756   3.911  10.894   7.233
18917SOL     OW58757   3.654   7.110   5.993
18917SOL    HW158758   3.644   7.190   6.044
18917SOL    HW258759   3.732   7.068   6.029
18918SOL     OW58760   8.537   7.087   4.250
18918SOL    HW158761   8.469   7.020   4.241
18918SOL    HW258762   8.522   7.126   4.336
18919SOL     OW58763   8.682   4.698   1.401
18919SOL    HW158764   8.631   4.651   1.335
18919SOL    HW258765   8.771   4.665   1.389
18920SOL     OW58766   4.341   8.146   5.394
18920SOL    HW158767   4.264   8.156   5.338
18920SOL    HW258768   4.307   8.157   5.483
18921SOL     OW58769   7.368   7.963   2.206
18921SOL    HW158770   7.350   7.869   2.205
18921SOL    HW258771   7.392   7.984   2.115
18922SOL     OW58772   3.865   2.810   9.922
18922SOL    HW158773   3.820   2.733   9.885
18922SOL    HW258774   3.950   2.810   9.878
18923SOL     OW58775   3.974   8.018   8.868
18923SOL    HW158776   4.062   8.056   8.863
18923SOL    HW258777   3.989   7.923   8.871
18924SOL     OW58778   3.288   0.748   6.119
18924SOL    HW158779   3.213   0.745   6.178
18924SOL    HW258780   3.336   0.827   6.144
18925SOL     OW58781  10.658   4.004   0.866
18925SOL    HW158782  10.670   4.097   0.883
18925SOL    HW258783  10.725   3.961   0.919
18926SOL     OW58784   4.115   1.363  10.890
18926SOL    HW158785   4.180   1.382  10.822
18926SOL    HW258786   4.050   1.433  10.882
18927SOL     OW58787   5.146   0.573   9.381
18927SOL    HW158788   5.051   0.581   9.388
18927SOL    HW258789   5.162   0.478   9.376
18928SOL     OW58790   9.978   1.654   5.639
18928SOL    HW158791  10.039   1.617   5.703
18928SOL    HW258792  10.034   1.689   5.570
18929SOL     OW58793  10.528  10.651  10.955
18929SOL    HW158794  10.547  10.701  10.875
18929SOL    HW258795  10.563  10.564  10.937
18930SOL     OW58796   8.349   4.768   4.394
18930SOL    HW158797   8.433   4.785   4.350
18930SOL    HW258798   8.369   4.774   4.487
18931SOL     OW58799   5.969   7.976   2.961
18931SOL    HW158800   5.997   7.930   2.881
18931SOL    HW258801   6.024   7.938   3.030
18932SOL     OW58802   4.886   7.712   6.733
18932SOL    HW158803   4.807   7.722   6.785
18932SOL    HW258804   4.915   7.622   6.750
18933SOL     OW58805   7.508   5.964  11.030
18933SOL    HW158806   7.523   6.034  10.967
18933SOL    HW258807   7.519   6.005  11.115
18934SOL     OW58808   3.042   4.399   4.776
18934SOL    HW158809   3.103   4.462   4.814
18934SOL    HW258810   3.076   4.382   4.688
18935SOL     OW58811   0.290   8.974   1.619
18935SOL    HW158812   0.248   8.939   1.698
18935SOL    HW258813   0.227   8.956   1.549
18936SOL     OW58814   9.145   6.311  10.238
18936SOL    HW158815   9.195   6.326  10.318
18936SOL    HW258816   9.089   6.388  10.230
18937SOL     OW58817  10.702   5.111   8.159
18937SOL    HW158818  10.727   5.068   8.077
18937SOL    HW258819  10.733   5.052   8.227
18938SOL     OW58820   5.100  10.216   9.555
18938SOL    HW158821   5.038  10.188   9.487
18938SOL    HW258822   5.084  10.156   9.628
18939SOL     OW58823   2.099   4.184   5.052
18939SOL    HW158824   2.069   4.258   4.999
18939SOL    HW258825   2.192   4.176   5.031
18940SOL     OW58826   1.235   8.335   6.312
18940SOL    HW158827   1.218   8.387   6.234
18940SOL    HW258828   1.230   8.397   6.384
18941SOL     OW58829   8.939   6.795   3.018
18941SOL    HW158830   9.030   6.776   2.993
18941SOL    HW258831   8.941   6.800   3.113
18942SOL     OW58832   1.334   8.732   0.745
18942SOL    HW158833   1.351   8.761   0.655
18942SOL    HW258834   1.239   8.734   0.753
18943SOL     OW58835   7.404   2.454   4.248
18943SOL    HW158836   7.493   2.488   4.240
18943SOL    HW258837   7.384   2.420   4.161
18944SOL     OW58838   9.317  11.069   3.486
18944SOL    HW158839   9.256  11.044   3.416
18944SOL    HW258840   9.303  11.163   3.498
18945SOL     OW58841   3.422   8.879   0.682
18945SOL    HW158842   3.395   8.871   0.773
18945SOL    HW258843   3.409   8.791   0.645
18946SOL     OW58844   0.717   2.392   7.552
18946SOL    HW158845   0.745   2.349   7.633
18946SOL    HW258846   0.673   2.322   7.503
18947SOL     OW58847   2.365   8.391   8.611
18947SOL    HW158848   2.410   8.415   8.691
18947SOL    HW258849   2.289   8.449   8.607
18948SOL     OW58850   4.151  10.518   3.989
18948SOL    HW158851   4.226  10.480   4.034
18948SOL    HW258852   4.189  10.558   3.910
18949SOL     OW58853   5.196   9.143   5.137
18949SOL    HW158854   5.122   9.155   5.196
18949SOL    HW258855   5.244   9.068   5.172
18950SOL     OW58856   6.193   8.661   5.519
18950SOL    HW158857   6.132   8.621   5.457
18950SOL    HW258858   6.277   8.663   5.472
18951SOL     OW58859   5.731   8.294   0.098
18951SOL    HW158860   5.791   8.361   0.131
18951SOL    HW258861   5.717   8.316   0.006
18952SOL     OW58862   2.244   4.515   5.210
18952SOL    HW158863   2.283   4.599   5.188
18952SOL    HW258864   2.317   4.452   5.203
18953SOL     OW58865   9.560   4.290   8.792
18953SOL    HW158866   9.500   4.245   8.732
18953SOL    HW258867   9.532   4.381   8.789
18954SOL     OW58868   5.140   5.341   5.963
18954SOL    HW158869   5.169   5.265   5.911
18954SOL    HW258870   5.212   5.404   5.955
18955SOL     OW58871   0.311   4.417   5.980
18955SOL    HW158872   0.400   4.452   5.972
18955SOL    HW258873   0.279   4.413   5.889
18956SOL     OW58874   2.422   6.733   8.878
18956SOL    HW158875   2.460   6.707   8.794
18956SOL    HW258876   2.443   6.826   8.886
18957SOL     OW58877   2.999   7.929   3.874
18957SOL    HW158878   2.962   7.942   3.961
18957SOL    HW258879   3.092   7.951   3.883
18958SOL     OW58880   2.511   8.520  10.875
18958SOL    HW158881   2.507   8.594  10.814
18958SOL    HW258882   2.420   8.493  10.886
18959SOL     OW58883   9.187   0.639   4.081
18959SOL    HW158884   9.151   0.631   3.992
18959SOL    HW258885   9.112   0.661   4.135
18960SOL     OW58886  10.897   0.170   0.180
18960SOL    HW158887  10.824   0.118   0.214
18960SOL    HW258888  10.975   0.127   0.217
18961SOL     OW58889  10.363  10.381   6.582
18961SOL    HW158890  10.444  10.360   6.535
18961SOL    HW258891  10.311  10.429   6.518
18962SOL     OW58892   2.532   0.137  11.056
18962SOL    HW158893   2.608   0.078  11.052
18962SOL    HW258894   2.566   0.216  11.098
18963SOL     OW58895   6.312   7.228   4.999
18963SOL    HW158896   6.353   7.154   5.044
18963SOL    HW258897   6.371   7.247   4.926
18964SOL     OW58898   3.688   8.205   9.916
18964SOL    HW158899   3.782   8.221   9.927
18964SOL    HW258900   3.647   8.289   9.937
18965SOL     OW58901   5.648   3.472  10.949
18965SOL    HW158902   5.603   3.465  10.865
18965SOL    HW258903   5.602   3.541  10.996
18966SOL     OW58904   7.508   1.227   6.504
18966SOL    HW158905   7.599   1.208   6.479
18966SOL    HW258906   7.515   1.270   6.589
18967SOL     OW58907  10.604   0.024   3.685
18967SOL    HW158908  10.697   0.045   3.694
18967SOL    HW258909  10.603  -0.064   3.647
18968SOL     OW58910   6.514   7.412   5.822
18968SOL    HW158911   6.606   7.386   5.827
18968SOL    HW258912   6.479   7.393   5.908
18969SOL     OW58913   5.403   8.506   6.904
18969SOL    HW158914   5.481   8.541   6.947
18969SOL    HW258915   5.342   8.487   6.975
18970SOL     OW58916   2.239   9.972   6.512
18970SOL    HW158917   2.249  10.039   6.579
18970SOL    HW258918   2.305   9.906   6.533
18971SOL     OW58919   0.583   2.009   3.675
18971SOL    HW158920   0.545   2.088   3.638
18971SOL    HW258921   0.585   2.025   3.769
18972SOL     OW58922   7.154   2.464   5.428
18972SOL    HW158923   7.212   2.477   5.353
18972SOL    HW258924   7.071   2.501   5.400
18973SOL     OW58925   7.763   2.206   7.335
18973SOL    HW158926   7.824   2.242   7.270
18973SOL    HW258927   7.778   2.258   7.414
18974SOL     OW58928   4.390   6.821   3.943
18974SOL    HW158929   4.360   6.898   3.895
18974SOL    HW258930   4.319   6.801   4.004
18975SOL     OW58931   0.366   4.904   6.103
18975SOL    HW158932   0.399   4.854   6.028
18975SOL    HW258933   0.426   4.978   6.111
18976SOL     OW58934   5.955   1.686   5.503
18976SOL    HW158935   5.865   1.707   5.528
18976SOL    HW258936   5.978   1.751   5.437
18977SOL     OW58937   1.677   9.225  10.127
18977SOL    HW158938   1.666   9.134  10.155
18977SOL    HW258939   1.636   9.228  10.040
18978SOL     OW58940   0.598  10.024  10.027
18978SOL    HW158941   0.611  10.114   9.998
18978SOL    HW258942   0.559  10.032  10.114
18979SOL     OW58943   1.820  11.011   9.951
18979SOL    HW158944   1.814  11.010   9.855
18979SOL    HW258945   1.892  11.071   9.970
18980SOL     OW58946   2.915   7.340   3.170
18980SOL    HW158947   2.860   7.323   3.093
18980SOL    HW258948   3.004   7.338   3.135
18981SOL     OW58949   4.137   3.832   0.511
18981SOL    HW158950   4.076   3.883   0.458
18981SOL    HW258951   4.104   3.840   0.600
18982SOL     OW58952   4.167   4.340   2.043
18982SOL    HW158953   4.137   4.310   2.128
18982SOL    HW258954   4.088   4.369   1.998
18983SOL     OW58955   4.337   7.622   4.866
18983SOL    HW158956   4.309   7.578   4.946
18983SOL    HW258957   4.330   7.715   4.886
18984SOL     OW58958   4.970   6.895   6.920
18984SOL    HW158959   5.017   6.944   6.987
18984SOL    HW258960   5.000   6.805   6.931
18985SOL     OW58961   5.796   3.363   5.117
18985SOL    HW158962   5.799   3.330   5.027
18985SOL    HW258963   5.736   3.437   5.113
18986SOL     OW58964   3.230   2.061   9.903
18986SOL    HW158965   3.182   2.096   9.978
18986SOL    HW258966   3.167   2.006   9.857
18987SOL     OW58967   7.535   2.516   4.620
18987SOL    HW158968   7.597   2.586   4.641
18987SOL    HW258969   7.463   2.560   4.575
18988SOL     OW58970   7.661   6.307   5.300
18988SOL    HW158971   7.566   6.308   5.287
18988SOL    HW258972   7.681   6.394   5.335
18989SOL     OW58973   5.200  10.078   2.594
18989SOL    HW158974   5.225  10.038   2.511
18989SOL    HW258975   5.277  10.068   2.650
18990SOL     OW58976   1.053   6.045   7.669
18990SOL    HW158977   1.114   5.991   7.618
18990SOL    HW258978   1.103   6.124   7.689
18991SOL     OW58979   1.997   1.124   9.028
18991SOL    HW158980   1.967   1.187   8.962
18991SOL    HW258981   2.077   1.163   9.064
18992SOL     OW58982   5.752   8.492   9.306
18992SOL    HW158983   5.739   8.415   9.250
18992SOL    HW258984   5.668   8.505   9.349
18993SOL     OW58985   7.467   6.968   2.141
18993SOL    HW158986   7.426   6.923   2.214
18993SOL    HW258987   7.475   6.901   2.073
18994SOL     OW58988   3.346   8.724  10.705
18994SOL    HW158989   3.323   8.755  10.617
18994SOL    HW258990   3.440   8.704  10.699
18995SOL     OW58991   4.133   7.469   1.922
18995SOL    HW158992   4.174   7.390   1.958
18995SOL    HW258993   4.065   7.492   1.985
18996SOL     OW58994   6.194   7.641  10.336
18996SOL    HW158995   6.264   7.700  10.362
18996SOL    HW258996   6.127   7.698  10.297
18997SOL     OW58997   2.652   6.183   7.837
18997SOL    HW158998   2.701   6.119   7.785
18997SOL    HW258999   2.560   6.161   7.822
18998SOL     OW59000   6.425   7.243   5.612
18998SOL    HW159001   6.456   7.305   5.678
18998SOL    HW259002   6.504   7.218   5.564
18999SOL     OW59003   9.123   5.012   2.294
18999SOL    HW159004   9.119   5.094   2.244
18999SOL    HW259005   9.154   5.037   2.381
19000SOL     OW59006   1.332   6.104  10.372
19000SOL    HW159007   1.343   6.198  10.382
19000SOL    HW259008   1.254   6.083  10.422
19001SOL     OW59009   9.098   6.328   6.101
19001SOL    HW159010   9.190   6.340   6.123
19001SOL    HW259011   9.096   6.245   6.053
19002SOL     OW59012   7.889   6.226   6.141
19002SOL    HW159013   7.982   6.206   6.151
19002SOL    HW259014   7.886   6.286   6.066
19003SOL     OW59015   8.945   1.019   4.895
19003SOL    HW159016   8.941   1.088   4.960
19003SOL    HW259017   9.036   0.987   4.899
19004SOL     OW59018   9.897   3.715   2.832
19004SOL    HW159019   9.825   3.748   2.778
19004SOL    HW259020   9.961   3.786   2.833
19005SOL     OW59021   2.293   3.495   4.294
19005SOL    HW159022   2.297   3.420   4.233
19005SOL    HW259023   2.201   3.520   4.294
19006SOL     OW59024   4.590   2.525   8.868
19006SOL    HW159025   4.613   2.432   8.859
19006SOL    HW259026   4.501   2.524   8.902
19007SOL     OW59027   9.916   6.085   8.175
19007SOL    HW159028   9.916   6.173   8.212
19007SOL    HW259029   9.911   6.027   8.251
19008SOL     OW59030   4.710   5.485   6.440
19008SOL    HW159031   4.758   5.555   6.396
19008SOL    HW259032   4.711   5.412   6.377
19009SOL     OW59033   8.130   0.203  10.618
19009SOL    HW159034   8.179   0.190  10.699
19009SOL    HW259035   8.190   0.252  10.561
19010SOL     OW59036   4.316   7.902   1.079
19010SOL    HW159037   4.260   7.979   1.078
19010SOL    HW259038   4.344   7.891   0.988
19011SOL     OW59039   7.507   7.688   6.923
19011SOL    HW159040   7.575   7.634   6.964
19011SOL    HW259041   7.426   7.640   6.939
19012SOL     OW59042   2.822   4.509   3.259
19012SOL    HW159043   2.773   4.587   3.233
19012SOL    HW259044   2.823   4.454   3.180
19013SOL     OW59045   0.974   8.798   8.139
19013SOL    HW159046   0.914   8.754   8.078
19013SOL    HW259047   0.920   8.823   8.213
19014SOL     OW59048   5.071   5.539   7.110
19014SOL    HW159049   5.061   5.630   7.084
19014SOL    HW259050   4.995   5.495   7.072
19015SOL     OW59051   2.764   6.193   3.892
19015SOL    HW159052   2.775   6.256   3.821
19015SOL    HW259053   2.839   6.208   3.950
19016SOL     OW59054   6.325   5.739   8.936
19016SOL    HW159055   6.265   5.673   8.972
19016SOL    HW259056   6.352   5.703   8.851
19017SOL     OW59057   0.643   6.702   2.829
19017SOL    HW159058   0.673   6.634   2.890
19017SOL    HW259059   0.551   6.680   2.812
19018SOL     OW59060   6.738   4.479   9.215
19018SOL    HW159061   6.795   4.554   9.198
19018SOL    HW259062   6.656   4.500   9.170
19019SOL     OW59063  10.414   5.207   7.895
19019SOL    HW159064  10.418   5.287   7.946
19019SOL    HW259065  10.503   5.195   7.862
19020SOL     OW59066   0.606  10.845  10.952
19020SOL    HW159067   0.683  10.790  10.936
19020SOL    HW259068   0.642  10.931  10.972
19021SOL     OW59069   6.884   9.532  10.161
19021SOL    HW159070   6.883   9.570  10.249
19021SOL    HW259071   6.977   9.515  10.143
19022SOL     OW59072   6.396   6.376   6.128
19022SOL    HW159073   6.366   6.463   6.152
19022SOL    HW259074   6.409   6.331   6.211
19023SOL     OW59075   3.465   3.169   1.435
19023SOL    HW159076   3.470   3.102   1.503
19023SOL    HW259077   3.479   3.251   1.481
19024SOL     OW59078  10.551   0.352   5.363
19024SOL    HW159079  10.603   0.420   5.320
19024SOL    HW259080  10.462   0.368   5.333
19025SOL     OW59081   8.790   1.073   3.576
19025SOL    HW159082   8.795   1.167   3.559
19025SOL    HW259083   8.770   1.034   3.490
19026SOL     OW59084   4.326   1.129   6.192
19026SOL    HW159085   4.243   1.093   6.224
19026SOL    HW259086   4.383   1.052   6.182
19027SOL     OW59087   5.437   5.551   6.348
19027SOL    HW159088   5.430   5.509   6.433
19027SOL    HW259089   5.442   5.478   6.286
19028SOL     OW59090  10.030   2.491   0.347
19028SOL    HW159091  10.105   2.437   0.371
19028SOL    HW259092  10.044   2.574   0.392
19029SOL     OW59093   6.023   9.922   5.083
19029SOL    HW159094   5.930   9.927   5.103
19029SOL    HW259095   6.026   9.900   4.990
19030SOL     OW59096   5.517  10.050   5.174
19030SOL    HW159097   5.528   9.968   5.222
19030SOL    HW259098   5.515  10.117   5.242
19031SOL     OW59099   7.096   1.763   6.413
19031SOL    HW159100   7.014   1.810   6.422
19031SOL    HW259101   7.135   1.766   6.500
19032SOL     OW59102  10.407   3.267   3.920
19032SOL    HW159103  10.366   3.353   3.916
19032SOL    HW259104  10.476   3.270   3.853
19033SOL     OW59105   5.691   5.197   6.362
19033SOL    HW159106   5.599   5.189   6.388
19033SOL    HW259107   5.714   5.110   6.328
19034SOL     OW59108   5.331   5.702   8.812
19034SOL    HW159109   5.417   5.689   8.771
19034SOL    HW259110   5.351   5.728   8.902
19035SOL     OW59111   1.884   0.921   8.270
19035SOL    HW159112   1.827   0.885   8.338
19035SOL    HW259113   1.928   0.844   8.233
19036SOL     OW59114   8.096   7.164   7.477
19036SOL    HW159115   8.068   7.114   7.400
19036SOL    HW259116   8.176   7.208   7.449
19037SOL     OW59117   5.851   3.818  10.561
19037SOL    HW159118   5.931   3.853  10.522
19037SOL    HW259119   5.866   3.823  10.655
19038SOL     OW59120   5.233   5.662  10.842
19038SOL    HW159121   5.154   5.612  10.824
19038SOL    HW259122   5.205   5.732  10.901
19039SOL     OW59123   2.640   7.334   4.335
19039SOL    HW159124   2.669   7.368   4.419
19039SOL    HW259125   2.663   7.241   4.337
19040SOL     OW59126   0.400   2.470   1.141
19040SOL    HW159127   0.458   2.545   1.126
19040SOL    HW259128   0.396   2.425   1.056
19041SOL     OW59129   0.321   0.494   9.274
19041SOL    HW159130   0.337   0.579   9.315
19041SOL    HW259131   0.327   0.511   9.180
19042SOL     OW59132   9.734   2.610   6.507
19042SOL    HW159133   9.743   2.522   6.545
19042SOL    HW259134   9.662   2.602   6.444
19043SOL     OW59135   4.674   2.045   1.731
19043SOL    HW159136   4.623   1.968   1.704
19043SOL    HW259137   4.728   2.065   1.654
19044SOL     OW59138  10.941  10.694   8.963
19044SOL    HW159139  10.893  10.739   8.893
19044SOL    HW259140  11.025  10.671   8.923
19045SOL     OW59141   1.695   6.485   4.073
19045SOL    HW159142   1.647   6.405   4.051
19045SOL    HW259143   1.782   6.472   4.035
19046SOL     OW59144   6.204   4.186   5.880
19046SOL    HW159145   6.259   4.217   5.808
19046SOL    HW259146   6.265   4.169   5.951
19047SOL     OW59147   6.141   5.693   4.294
19047SOL    HW159148   6.156   5.614   4.346
19047SOL    HW259149   6.226   5.711   4.254
19048SOL     OW59150   6.311   3.005   8.387
19048SOL    HW159151   6.243   3.052   8.435
19048SOL    HW259152   6.349   3.070   8.328
19049SOL     OW59153   8.049   6.540   6.465
19049SOL    HW159154   7.972   6.581   6.427
19049SOL    HW259155   8.096   6.503   6.389
19050SOL     OW59156   3.107   4.953  10.750
19050SOL    HW159157   3.061   5.005  10.816
19050SOL    HW259158   3.045   4.884  10.725
19051SOL     OW59159   9.793   8.572   7.121
19051SOL    HW159160   9.770   8.515   7.194
19051SOL    HW259161   9.759   8.658   7.146
19052SOL     OW59162   3.353   7.042   2.478
19052SOL    HW159163   3.294   6.993   2.421
19052SOL    HW259164   3.305   7.122   2.498
19053SOL     OW59165  10.380   4.423   9.224
19053SOL    HW159166  10.470   4.393   9.239
19053SOL    HW259167  10.338   4.418   9.309
19054SOL     OW59168   6.356   8.019   0.105
19054SOL    HW159169   6.370   8.051   0.016
19054SOL    HW259170   6.438   8.037   0.150
19055SOL     OW59171  11.091   8.558   5.222
19055SOL    HW159172  11.040   8.478   5.236
19055SOL    HW259173  11.114   8.556   5.129
19056SOL     OW59174   2.363   8.066   8.243
19056SOL    HW159175   2.438   8.008   8.259
19056SOL    HW259176   2.402   8.153   8.237
19057SOL     OW59177   5.545   6.685   8.377
19057SOL    HW159178   5.504   6.740   8.310
19057SOL    HW259179   5.537   6.735   8.458
19058SOL     OW59180   8.245   3.231   6.341
19058SOL    HW159181   8.334   3.210   6.314
19058SOL    HW259182   8.197   3.149   6.331
19059SOL     OW59183   1.028   2.178   9.874
19059SOL    HW159184   0.934   2.161   9.873
19059SOL    HW259185   1.066   2.096   9.905
19060SOL     OW59186   4.696   2.979   4.382
19060SOL    HW159187   4.654   2.893   4.376
19060SOL    HW259188   4.669   3.024   4.302
19061SOL     OW59189   0.130  10.602  10.910
19061SOL    HW159190   0.204  10.544  10.927
19061SOL    HW259191   0.105  10.583  10.819
19062SOL     OW59192  10.447   1.576   3.161
19062SOL    HW159193  10.508   1.649   3.151
19062SOL    HW259194  10.370   1.614   3.203
19063SOL     OW59195   4.090   4.931  10.006
19063SOL    HW159196   4.029   4.866   9.972
19063SOL    HW259197   4.037   4.988  10.061
19064SOL     OW59198   5.615   9.256   5.667
19064SOL    HW159199   5.666   9.233   5.744
19064SOL    HW259200   5.681   9.272   5.599
19065SOL     OW59201   7.082   8.096   7.960
19065SOL    HW159202   7.035   8.047   8.027
19065SOL    HW259203   7.135   8.159   8.008
19066SOL     OW59204   9.591   5.631   1.781
19066SOL    HW159205   9.668   5.612   1.726
19066SOL    HW259206   9.556   5.544   1.803
19067SOL     OW59207   3.005   7.128   7.233
19067SOL    HW159208   3.065   7.179   7.179
19067SOL    HW259209   2.938   7.190   7.261
19068SOL     OW59210   6.103   6.876   9.927
19068SOL    HW159211   6.080   6.879  10.019
19068SOL    HW259212   6.058   6.798   9.894
19069SOL     OW59213   8.164   7.344   9.170
19069SOL    HW159214   8.137   7.253   9.155
19069SOL    HW259215   8.119   7.369   9.250
19070SOL     OW59216   1.264   5.423  10.904
19070SOL    HW159217   1.339   5.456  10.953
19070SOL    HW259218   1.187   5.451  10.954
19071SOL     OW59219   2.868   3.544   6.510
19071SOL    HW159220   2.828   3.504   6.587
19071SOL    HW259221   2.942   3.487   6.489
19072SOL     OW59222   7.460   8.247   2.105
19072SOL    HW159223   7.531   8.280   2.049
19072SOL    HW259224   7.504   8.190   2.168
19073SOL     OW59225  10.805   5.901   3.416
19073SOL    HW159226  10.826   5.839   3.486
19073SOL    HW259227  10.890   5.922   3.376
19074SOL     OW59228   9.665   8.730   1.776
19074SOL    HW159229   9.619   8.803   1.816
19074SOL    HW259230   9.596   8.675   1.738
19075SOL     OW59231   2.135   9.298   9.837
19075SOL    HW159232   2.072   9.242   9.791
19075SOL    HW259233   2.091   9.382   9.845
19076SOL     OW59234   5.520   0.437   9.972
19076SOL    HW159235   5.594   0.485   9.935
19076SOL    HW259236   5.560   0.365  10.021
19077SOL     OW59237   9.787   2.106   8.154
19077SOL    HW159238   9.694   2.118   8.138
19077SOL    HW259239   9.799   2.011   8.153
19078SOL     OW59240   4.240   5.485   5.020
19078SOL    HW159241   4.324   5.476   4.975
19078SOL    HW259242   4.260   5.535   5.098
19079SOL     OW59243   8.920   5.072   3.338
19079SOL    HW159244   8.836   5.115   3.351
19079SOL    HW259245   8.921   5.050   3.244
19080SOL     OW59246   8.374   5.093   6.909
19080SOL    HW159247   8.292   5.055   6.878
19080SOL    HW259248   8.441   5.027   6.888
19081SOL     OW59249   5.708   6.059   6.240
19081SOL    HW159250   5.754   5.987   6.284
19081SOL    HW259251   5.753   6.138   6.269
19082SOL     OW59252   4.550   4.839   0.833
19082SOL    HW159253   4.572   4.798   0.916
19082SOL    HW259254   4.613   4.802   0.771
19083SOL     OW59255   5.476   8.092   6.615
19083SOL    HW159256   5.494   8.072   6.523
19083SOL    HW259257   5.495   8.010   6.661
19084SOL     OW59258   4.314   0.782   5.464
19084SOL    HW159259   4.295   0.861   5.414
19084SOL    HW259260   4.282   0.710   5.409
19085SOL     OW59261   3.688   9.416   7.525
19085SOL    HW159262   3.741   9.495   7.517
19085SOL    HW259263   3.683   9.400   7.619
19086SOL     OW59264   4.150   6.096   8.160
19086SOL    HW159265   4.204   6.030   8.115
19086SOL    HW259266   4.105   6.047   8.229
19087SOL     OW59267   6.485   7.332   7.935
19087SOL    HW159268   6.548   7.260   7.935
19087SOL    HW259269   6.522   7.396   7.875
19088SOL     OW59270   6.868   8.535   8.839
19088SOL    HW159271   6.837   8.496   8.920
19088SOL    HW259272   6.916   8.464   8.795
19089SOL     OW59273   2.979   1.517   9.604
19089SOL    HW159274   2.928   1.586   9.647
19089SOL    HW259275   3.064   1.557   9.587
19090SOL     OW59276   8.077   4.395   8.532
19090SOL    HW159277   8.018   4.468   8.549
19090SOL    HW259278   8.114   4.374   8.617
19091SOL     OW59279   4.935   2.339   0.825
19091SOL    HW159280   4.967   2.290   0.749
19091SOL    HW259281   5.002   2.405   0.841
19092SOL     OW59282   5.558   8.817   8.616
19092SOL    HW159283   5.567   8.731   8.658
19092SOL    HW259284   5.473   8.849   8.645
19093SOL     OW59285   3.385   5.013   6.576
19093SOL    HW159286   3.290   5.022   6.568
19093SOL    HW259287   3.403   5.019   6.670
19094SOL     OW59288   6.774   8.093   5.403
19094SOL    HW159289   6.683   8.113   5.425
19094SOL    HW259290   6.774   7.999   5.386
19095SOL     OW59291   4.966   6.643   0.169
19095SOL    HW159292   4.876   6.633   0.139
19095SOL    HW259293   4.959   6.685   0.255
19096SOL     OW59294   0.272   2.135   2.696
19096SOL    HW159295   0.192   2.152   2.745
19096SOL    HW259296   0.336   2.196   2.732
19097SOL     OW59297   6.036   7.367   2.731
19097SOL    HW159298   5.983   7.440   2.763
19097SOL    HW259299   5.992   7.289   2.765
19098SOL     OW59300   6.931   5.868   0.659
19098SOL    HW159301   7.005   5.921   0.688
19098SOL    HW259302   6.936   5.870   0.563
19099SOL     OW59303   0.590   3.689   1.363
19099SOL    HW159304   0.657   3.755   1.347
19099SOL    HW259305   0.637   3.605   1.358
19100SOL     OW59306   4.410   3.189   3.477
19100SOL    HW159307   4.420   3.102   3.437
19100SOL    HW259308   4.451   3.181   3.563
19101SOL     OW59309   8.231   4.009  10.651
19101SOL    HW159310   8.252   3.957  10.729
19101SOL    HW259311   8.158   3.962  10.610
19102SOL     OW59312   8.010   9.330   3.922
19102SOL    HW159313   7.961   9.397   3.874
19102SOL    HW259314   8.055   9.377   3.992
19103SOL     OW59315   1.390   6.157   0.634
19103SOL    HW159316   1.382   6.095   0.561
19103SOL    HW259317   1.408   6.101   0.710
19104SOL     OW59318  10.992   6.626   9.215
19104SOL    HW159319  11.015   6.608   9.306
19104SOL    HW259320  11.025   6.714   9.198
19105SOL     OW59321   3.478   9.094   9.086
19105SOL    HW159322   3.401   9.147   9.066
19105SOL    HW259323   3.530   9.096   9.005
19106SOL     OW59324   7.864   6.969   9.215
19106SOL    HW159325   7.805   6.933   9.148
19106SOL    HW259326   7.859   6.906   9.287
19107SOL     OW59327   5.372   9.910  10.252
19107SOL    HW159328   5.381   9.974  10.182
19107SOL    HW259329   5.403   9.828  10.213
19108SOL     OW59330   2.006   4.914  10.075
19108SOL    HW159331   2.072   4.948  10.135
19108SOL    HW259332   2.044   4.926   9.988
19109SOL     OW59333   5.472  11.038   7.884
19109SOL    HW159334   5.528  10.965   7.857
19109SOL    HW259335   5.522  11.116   7.862
19110SOL     OW59336   6.655   9.580   3.854
19110SOL    HW159337   6.684   9.603   3.766
19110SOL    HW259338   6.652   9.663   3.901
19111SOL     OW59339  11.032   7.749   8.918
19111SOL    HW159340  10.991   7.794   8.844
19111SOL    HW259341  11.108   7.803   8.940
19112SOL     OW59342   7.306   1.451   5.392
19112SOL    HW159343   7.288   1.379   5.331
19112SOL    HW259344   7.272   1.529   5.347
19113SOL     OW59345   2.682   7.894   2.472
19113SOL    HW159346   2.686   7.821   2.534
19113SOL    HW259347   2.650   7.968   2.524
19114SOL     OW59348   7.944   5.936  10.837
19114SOL    HW159349   8.027   5.909  10.877
19114SOL    HW259350   7.881   5.937  10.909
19115SOL     OW59351   1.460   0.964  10.400
19115SOL    HW159352   1.533   0.933  10.346
19115SOL    HW259353   1.405   0.886  10.412
19116SOL     OW59354   3.244   5.897  10.301
19116SOL    HW159355   3.331   5.860  10.317
19116SOL    HW259356   3.260   5.989  10.279
19117SOL     OW59357   5.037   5.090   7.843
19117SOL    HW159358   5.048   5.145   7.765
19117SOL    HW259359   5.042   5.000   7.810
19118SOL     OW59360   8.531   4.782   8.969
19118SOL    HW159361   8.554   4.689   8.968
19118SOL    HW259362   8.539   4.808   9.061
19119SOL     OW59363   8.504   5.986   7.349
19119SOL    HW159364   8.502   5.983   7.444
19119SOL    HW259365   8.578   6.043   7.328
19120SOL     OW59366   4.951   9.941   3.522
19120SOL    HW159367   4.900  10.005   3.571
19120SOL    HW259368   5.042   9.961   3.544
19121SOL     OW59369   8.120   1.804   9.662
19121SOL    HW159370   8.099   1.865   9.591
19121SOL    HW259371   8.120   1.718   9.620
19122SOL     OW59372   8.198   4.682   6.838
19122SOL    HW159373   8.168   4.772   6.824
19122SOL    HW259374   8.258   4.688   6.912
19123SOL     OW59375   5.604   0.073   4.820
19123SOL    HW159376   5.583   0.109   4.733
19123SOL    HW259377   5.567   0.136   4.881
19124SOL     OW59378   4.005   8.454  11.052
19124SOL    HW159379   4.066   8.422  11.118
19124SOL    HW259380   4.053   8.447  10.969
19125SOL     OW59381   5.021   5.449   1.495
19125SOL    HW159382   5.078   5.433   1.419
19125SOL    HW259383   4.955   5.380   1.489
19126SOL     OW59384   0.921   9.200   7.040
19126SOL    HW159385   0.941   9.258   6.966
19126SOL    HW259386   0.922   9.257   7.116
19127SOL     OW59387   4.086   4.470  10.056
19127SOL    HW159388   4.092   4.516  10.139
19127SOL    HW259389   4.152   4.512  10.000
19128SOL     OW59390  10.002   4.069   6.317
19128SOL    HW159391   9.945   4.090   6.243
19128SOL    HW259392  10.069   4.011   6.280
19129SOL     OW59393   8.797   7.612   6.221
19129SOL    HW159394   8.869   7.671   6.199
19129SOL    HW259395   8.727   7.637   6.161
19130SOL     OW59396  10.326   0.117   3.192
19130SOL    HW159397  10.310   0.206   3.223
19130SOL    HW259398  10.360   0.128   3.103
19131SOL     OW59399   8.766   0.278   7.116
19131SOL    HW159400   8.755   0.242   7.028
19131SOL    HW259401   8.770   0.201   7.173
19132SOL     OW59402   5.640   2.466   9.517
19132SOL    HW159403   5.639   2.435   9.426
19132SOL    HW259404   5.714   2.526   9.521
19133SOL     OW59405   4.490   7.306   4.607
19133SOL    HW159406   4.513   7.215   4.588
19133SOL    HW259407   4.564   7.339   4.658
19134SOL     OW59408  10.846   4.546   0.118
19134SOL    HW159409  10.875   4.487   0.188
19134SOL    HW259410  10.792   4.491   0.061
19135SOL     OW59411   1.602   4.332   8.832
19135SOL    HW159412   1.540   4.267   8.863
19135SOL    HW259413   1.671   4.280   8.790
19136SOL     OW59414   8.635   6.561   9.890
19136SOL    HW159415   8.688   6.524   9.960
19136SOL    HW259416   8.545   6.543   9.916
19137SOL     OW59417   7.630   3.919   6.494
19137SOL    HW159418   7.594   3.874   6.417
19137SOL    HW259419   7.638   4.010   6.466
19138SOL     OW59420   9.388   3.281   9.091
19138SOL    HW159421   9.359   3.334   9.017
19138SOL    HW259422   9.354   3.193   9.072
19139SOL     OW59423  10.549   2.077   6.831
19139SOL    HW159424  10.467   2.051   6.872
19139SOL    HW259425  10.600   2.116   6.901
19140SOL     OW59426  10.132   5.261   2.499
19140SOL    HW159427  10.171   5.196   2.557
19140SOL    HW259428  10.146   5.344   2.543
19141SOL     OW59429   9.640   8.182   7.847
19141SOL    HW159430   9.625   8.182   7.752
19141SOL    HW259431   9.585   8.110   7.879
19142SOL     OW59432   7.540   0.506  10.862
19142SOL    HW159433   7.516   0.595  10.837
19142SOL    HW259434   7.509   0.451  10.789
19143SOL     OW59435   0.901   9.432   4.390
19143SOL    HW159436   0.948   9.404   4.311
19143SOL    HW259437   0.963   9.490   4.435
19144SOL     OW59438  10.901   2.895   4.378
19144SOL    HW159439  10.903   2.975   4.325
19144SOL    HW259440  10.987   2.854   4.362
19145SOL     OW59441   2.103   4.810   6.912
19145SOL    HW159442   2.085   4.805   7.006
19145SOL    HW259443   2.043   4.746   6.872
19146SOL     OW59444   0.311   6.290   8.273
19146SOL    HW159445   0.403   6.264   8.278
19146SOL    HW259446   0.295   6.302   8.179
19147SOL     OW59447   3.416   5.333  10.228
19147SOL    HW159448   3.370   5.302  10.150
19147SOL    HW259449   3.452   5.253  10.268
19148SOL     OW59450   6.570   8.587   1.559
19148SOL    HW159451   6.635   8.559   1.623
19148SOL    HW259452   6.486   8.561   1.596
19149SOL     OW59453   0.964   1.385   9.846
19149SOL    HW159454   1.033   1.398   9.911
19149SOL    HW259455   0.979   1.296   9.813
19150SOL     OW59456   8.512   3.889   5.039
19150SOL    HW159457   8.541   3.819   4.980
19150SOL    HW259458   8.557   3.967   5.007
19151SOL     OW59459   2.404   1.356  10.791
19151SOL    HW159460   2.339   1.298  10.751
19151SOL    HW259461   2.487   1.332  10.749
19152SOL     OW59462   3.714   4.749   6.419
19152SOL    HW159463   3.677   4.754   6.507
19152SOL    HW259464   3.750   4.660   6.413
19153SOL     OW59465   2.453   3.883   7.130
19153SOL    HW159466   2.412   3.879   7.043
19153SOL    HW259467   2.489   3.971   7.135
19154SOL     OW59468   3.448   5.540   7.482
19154SOL    HW159469   3.466   5.494   7.564
19154SOL    HW259470   3.398   5.477   7.430
19155SOL     OW59471   8.175   7.219   6.837
19155SOL    HW159472   8.235   7.156   6.796
19155SOL    HW259473   8.182   7.201   6.931
19156SOL     OW59474   3.916   6.475   2.496
19156SOL    HW159475   3.854   6.499   2.427
19156SOL    HW259476   3.940   6.384   2.475
19157SOL     OW59477   7.402   5.738   2.223
19157SOL    HW159478   7.429   5.820   2.263
19157SOL    HW259479   7.374   5.683   2.296
19158SOL     OW59480   5.356   4.699   4.328
19158SOL    HW159481   5.380   4.632   4.393
19158SOL    HW259482   5.270   4.671   4.295
19159SOL     OW59483   3.244   6.627   9.721
19159SOL    HW159484   3.336   6.624   9.747
19159SOL    HW259485   3.211   6.539   9.740
19160SOL     OW59486   9.948   8.593   8.563
19160SOL    HW159487  10.006   8.643   8.506
19160SOL    HW259488   9.860   8.615   8.533
19161SOL     OW59489   8.441   2.752   9.106
19161SOL    HW159490   8.505   2.697   9.151
19161SOL    HW259491   8.481   2.770   9.021
19162SOL     OW59492   3.536   8.784   8.718
19162SOL    HW159493   3.463   8.846   8.717
19162SOL    HW259494   3.599   8.820   8.655
19163SOL     OW59495   8.950   3.444  10.453
19163SOL    HW159496   8.934   3.433  10.546
19163SOL    HW259497   8.867   3.420  10.411
19164SOL     OW59498   6.887   2.356   2.236
19164SOL    HW159499   6.916   2.404   2.313
19164SOL    HW259500   6.848   2.423   2.179
19165SOL     OW59501   2.584   7.864   7.457
19165SOL    HW159502   2.616   7.811   7.384
19165SOL    HW259503   2.650   7.932   7.468
19166SOL     OW59504   6.826   5.007  10.612
19166SOL    HW159505   6.779   5.074  10.563
19166SOL    HW259506   6.914   5.006  10.573
19167SOL     OW59507   3.970   7.134   8.835
19167SOL    HW159508   4.051   7.125   8.784
19167SOL    HW259509   3.979   7.217   8.880
19168SOL     OW59510   3.899   5.863   8.531
19168SOL    HW159511   3.842   5.939   8.528
19168SOL    HW259512   3.895   5.833   8.621
19169SOL     OW59513   5.036   2.366   9.119
19169SOL    HW159514   5.044   2.449   9.072
19169SOL    HW259515   5.068   2.300   9.057
19170SOL     OW59516   1.944   7.557   1.136
19170SOL    HW159517   1.958   7.616   1.210
19170SOL    HW259518   1.865   7.590   1.093
19171SOL     OW59519   7.402  10.973  10.653
19171SOL    HW159520   7.464  10.913  10.694
19171SOL    HW259521   7.457  11.036  10.606
19172SOL     OW59522   6.260   4.239   0.355
19172SOL    HW159523   6.320   4.227   0.281
19172SOL    HW259524   6.317   4.259   0.429
19173SOL     OW59525  10.226   4.558   8.854
19173SOL    HW159526  10.228   4.535   8.761
19173SOL    HW259527  10.143   4.522   8.886
19174SOL     OW59528  10.351   6.472   7.081
19174SOL    HW159529  10.383   6.558   7.054
19174SOL    HW259530  10.358   6.472   7.176
19175SOL     OW59531   4.722  10.728   7.345
19175SOL    HW159532   4.764  10.735   7.430
19175SOL    HW259533   4.697  10.818   7.323
19176SOL     OW59534   0.536   8.594   6.125
19176SOL    HW159535   0.581   8.510   6.134
19176SOL    HW259536   0.602   8.652   6.088
19177SOL     OW59537   0.625   8.177   4.735
19177SOL    HW159538   0.577   8.111   4.685
19177SOL    HW259539   0.700   8.129   4.771
19178SOL     OW59540   5.096   8.058  10.354
19178SOL    HW159541   5.018   8.113  10.357
19178SOL    HW259542   5.167   8.114  10.384
19179SOL     OW59543   6.020   0.559   4.021
19179SOL    HW159544   5.963   0.507   3.963
19179SOL    HW259545   5.966   0.578   4.097
19180SOL     OW59546   5.596   8.914   3.476
19180SOL    HW159547   5.616   8.823   3.453
19180SOL    HW259548   5.543   8.908   3.555
19181SOL     OW59549   9.825   3.119   4.138
19181SOL    HW159550   9.846   3.061   4.065
19181SOL    HW259551   9.792   3.060   4.206
19182SOL     OW59552   0.390  10.254   3.828
19182SOL    HW159553   0.395  10.247   3.923
19182SOL    HW259554   0.310  10.207   3.805
19183SOL     OW59555   8.609   7.104  -0.003
19183SOL    HW159556   8.637   7.077   0.085
19183SOL    HW259557   8.684   7.151  -0.038
19184SOL     OW59558   9.875   9.512   5.867
19184SOL    HW159559   9.823   9.510   5.947
19184SOL    HW259560   9.823   9.564   5.806
19185SOL     OW59561   9.151   9.435   0.691
19185SOL    HW159562   9.216   9.407   0.755
19185SOL    HW259563   9.094   9.358   0.680
19186SOL     OW59564   5.885   0.967   0.021
19186SOL    HW159565   5.958   0.994  -0.035
19186SOL    HW259566   5.823   0.924  -0.038
19187SOL     OW59567   3.903   4.148   1.823
19187SOL    HW159568   3.927   4.074   1.879
19187SOL    HW259569   3.987   4.181   1.790
19188SOL     OW59570   2.406   6.630   7.902
19188SOL    HW159571   2.483   6.580   7.929
19188SOL    HW259572   2.332   6.583   7.941
19189SOL     OW59573   4.786   6.661   5.403
19189SOL    HW159574   4.843   6.716   5.457
19189SOL    HW259575   4.845   6.624   5.336
19190SOL     OW59576   0.871   8.718   9.679
19190SOL    HW159577   0.811   8.722   9.604
19190SOL    HW259578   0.956   8.697   9.640
19191SOL     OW59579   7.904   4.474   9.596
19191SOL    HW159580   7.918   4.567   9.612
19191SOL    HW259581   7.986   4.443   9.558
19192SOL     OW59582   9.461   4.659   6.284
19192SOL    HW159583   9.434   4.686   6.196
19192SOL    HW259584   9.380   4.629   6.325
19193SOL     OW59585   6.544   5.043   2.202
19193SOL    HW159586   6.593   5.031   2.283
19193SOL    HW259587   6.611   5.064   2.136
19194SOL     OW59588   2.840   7.782   3.094
19194SOL    HW159589   2.934   7.799   3.104
19194SOL    HW259590   2.826   7.780   2.999
19195SOL     OW59591   8.014   7.059   9.717
19195SOL    HW159592   8.072   7.064   9.793
19195SOL    HW259593   8.029   6.971   9.681
19196SOL     OW59594   6.431   0.971   3.525
19196SOL    HW159595   6.518   0.938   3.504
19196SOL    HW259596   6.378   0.948   3.449
19197SOL     OW59597   2.360   7.567   1.786
19197SOL    HW159598   2.303   7.492   1.768
19197SOL    HW259599   2.447   7.528   1.798
19198SOL     OW59600   7.566   8.158  10.627
19198SOL    HW159601   7.509   8.169  10.551
19198SOL    HW259602   7.586   8.064  10.628
19199SOL     OW59603   6.416   0.501   7.778
19199SOL    HW159604   6.392   0.471   7.865
19199SOL    HW259605   6.338   0.486   7.725
19200SOL     OW59606   4.542   6.696   3.565
19200SOL    HW159607   4.453   6.673   3.537
19200SOL    HW259608   4.552   6.653   3.650
19201SOL     OW59609  10.531   3.940  11.056
19201SOL    HW159610  10.555   4.006  11.121
19201SOL    HW259611  10.575   3.860  11.085
19202SOL     OW59612   4.314   6.142  10.360
19202SOL    HW159613   4.393   6.179  10.321
19202SOL    HW259614   4.321   6.048  10.342
19203SOL     OW59615   4.989   6.226   7.905
19203SOL    HW159616   4.910   6.270   7.874
19203SOL    HW259617   4.989   6.142   7.859
19204SOL     OW59618   5.914   4.335   8.353
19204SOL    HW159619   5.932   4.423   8.386
19204SOL    HW259620   5.898   4.347   8.259
19205SOL     OW59621   4.142   9.260   8.300
19205SOL    HW159622   4.222   9.288   8.255
19205SOL    HW259623   4.075   9.321   8.269
19206SOL     OW59624   0.152   9.212   9.205
19206SOL    HW159625   0.209   9.286   9.186
19206SOL    HW259626   0.067   9.236   9.168
19207SOL     OW59627   0.491   1.832   5.701
19207SOL    HW159628   0.427   1.893   5.737
19207SOL    HW259629   0.456   1.809   5.615
19208SOL     OW59630   8.851   8.646   0.996
19208SOL    HW159631   8.823   8.706   0.927
19208SOL    HW259632   8.829   8.559   0.961
19209SOL     OW59633   6.852   3.735   1.465
19209SOL    HW159634   6.865   3.815   1.515
19209SOL    HW259635   6.940   3.696   1.458
19210SOL     OW59636   7.306   8.428   5.237
19210SOL    HW159637   7.264   8.347   5.265
19210SOL    HW259638   7.275   8.494   5.299
19211SOL     OW59639   2.356   2.482   5.189
19211SOL    HW159640   2.373   2.413   5.253
19211SOL    HW259641   2.276   2.454   5.145
19212SOL     OW59642  10.650   8.117   5.367
19212SOL    HW159643  10.740   8.106   5.398
19212SOL    HW259644  10.601   8.146   5.444
19213SOL     OW59645   8.171   6.980   4.862
19213SOL    HW159646   8.089   7.010   4.823
19213SOL    HW259647   8.146   6.907   4.919
19214SOL     OW59648   6.511   5.544   2.370
19214SOL    HW159649   6.470   5.603   2.433
19214SOL    HW259650   6.438   5.499   2.328
19215SOL     OW59651   1.674   7.929   9.058
19215SOL    HW159652   1.670   8.016   9.019
19215SOL    HW259653   1.747   7.886   9.012
19216SOL     OW59654   1.391   5.774   0.705
19216SOL    HW159655   1.402   5.723   0.785
19216SOL    HW259656   1.315   5.735   0.662
19217SOL     OW59657   4.974   4.326   8.676
19217SOL    HW159658   4.972   4.307   8.770
19217SOL    HW259659   5.059   4.292   8.647
19218SOL     OW59660   3.342   5.889   6.042
19218SOL    HW159661   3.362   5.931   6.126
19218SOL    HW259662   3.428   5.875   6.001
19219SOL     OW59663  10.598   5.381   4.107
19219SOL    HW159664  10.549   5.381   4.189
19219SOL    HW259665  10.619   5.289   4.092
19220SOL     OW59666   0.542   8.557   1.540
19220SOL    HW159667   0.503   8.472   1.519
19220SOL    HW259668   0.474   8.620   1.519
19221SOL     OW59669   9.145   0.945  10.487
19221SOL    HW159670   9.074   1.002  10.514
19221SOL    HW259671   9.204   1.002  10.438
19222SOL     OW59672  10.763   3.460   4.719
19222SOL    HW159673  10.674   3.445   4.687
19222SOL    HW259674  10.758   3.541   4.769
19223SOL     OW59675   8.382   4.476   8.838
19223SOL    HW159676   8.323   4.534   8.886
19223SOL    HW259677   8.413   4.528   8.764
19224SOL     OW59678   9.059   6.687  11.064
19224SOL    HW159679   8.981   6.741  11.062
19224SOL    HW259680   9.132   6.749  11.068
19225SOL     OW59681   6.338   2.848   3.664
19225SOL    HW159682   6.382   2.783   3.608
19225SOL    HW259683   6.358   2.820   3.753
19226SOL     OW59684   5.282   8.704   0.186
19226SOL    HW159685   5.193   8.668   0.191
19226SOL    HW259686   5.312   8.706   0.277
19227SOL     OW59687   0.346   9.621   9.076
19227SOL    HW159688   0.306   9.665   9.150
19227SOL    HW259689   0.339   9.528   9.097
19228SOL     OW59690   2.419   4.816   6.577
19228SOL    HW159691   2.451   4.767   6.501
19228SOL    HW259692   2.414   4.751   6.647
19229SOL     OW59693   6.643   7.369   5.142
19229SOL    HW159694   6.654   7.315   5.220
19229SOL    HW259695   6.556   7.408   5.152
19230SOL     OW59696   6.143   6.088   2.243
19230SOL    HW159697   6.102   6.129   2.319
19230SOL    HW259698   6.086   6.013   2.222
19231SOL     OW59699   1.827   0.317   9.722
19231SOL    HW159700   1.836   0.406   9.688
19231SOL    HW259701   1.749   0.282   9.679
19232SOL     OW59702   2.731   9.850   9.186
19232SOL    HW159703   2.760   9.821   9.272
19232SOL    HW259704   2.705   9.941   9.199
19233SOL     OW59705   5.204   2.560   5.272
19233SOL    HW159706   5.109   2.562   5.278
19233SOL    HW259707   5.232   2.522   5.355
19234SOL     OW59708  11.010   7.133   6.105
19234SOL    HW159709  10.930   7.087   6.128
19234SOL    HW259710  11.005   7.216   6.152
19235SOL     OW59711   8.428   4.305   6.209
19235SOL    HW159712   8.490   4.377   6.220
19235SOL    HW259713   8.347   4.337   6.248
19236SOL     OW59714   8.370   0.056   5.703
19236SOL    HW159715   8.461   0.083   5.690
19236SOL    HW259716   8.332   0.124   5.758
19237SOL     OW59717  10.256   9.569   5.850
19237SOL    HW159718  10.349   9.553   5.832
19237SOL    HW259719  10.222   9.604   5.768
19238SOL     OW59720   9.573   5.533   9.771
19238SOL    HW159721   9.516   5.468   9.730
19238SOL    HW259722   9.642   5.548   9.706
19239SOL     OW59723   7.082   2.384   9.749
19239SOL    HW159724   7.108   2.475   9.759
19239SOL    HW259725   7.118   2.358   9.664
19240SOL     OW59726   1.852   1.309   7.376
19240SOL    HW159727   1.914   1.278   7.309
19240SOL    HW259728   1.773   1.257   7.360
19241SOL     OW59729   7.712   6.921   7.529
19241SOL    HW159730   7.790   6.866   7.527
19241SOL    HW259731   7.684   6.920   7.620
19242SOL     OW59732   7.136  10.382   7.804
19242SOL    HW159733   7.229  10.385   7.825
19242SOL    HW259734   7.113  10.289   7.811
19243SOL     OW59735   3.960   7.702   6.787
19243SOL    HW159736   3.971   7.669   6.697
19243SOL    HW259737   4.018   7.647   6.839
19244SOL     OW59738   8.796   1.093  10.863
19244SOL    HW159739   8.813   1.187  10.859
19244SOL    HW259740   8.703   1.084  10.843
19245SOL     OW59741   6.635   6.499   8.642
19245SOL    HW159742   6.596   6.473   8.558
19245SOL    HW259743   6.589   6.580   8.665
19246SOL     OW59744   8.025   6.080   7.804
19246SOL    HW159745   8.005   6.106   7.714
19246SOL    HW259746   8.121   6.074   7.807
19247SOL     OW59747   7.111   4.219   6.233
19247SOL    HW159748   7.081   4.306   6.257
19247SOL    HW259749   7.047   4.189   6.168
19248SOL     OW59750   3.548   7.745  10.860
19248SOL    HW159751   3.458   7.715  10.872
19248SOL    HW259752   3.589   7.735  10.946
19249SOL     OW59753   0.607   5.191   5.589
19249SOL    HW159754   0.620   5.166   5.497
19249SOL    HW259755   0.512   5.202   5.597
19250SOL     OW59756   2.706   8.553   5.008
19250SOL    HW159757   2.618   8.516   5.012
19250SOL    HW259758   2.715   8.603   5.089
19251SOL     OW59759   5.214   2.619   9.389
19251SOL    HW159760   5.127   2.583   9.372
19251SOL    HW259761   5.203   2.713   9.379
19252SOL     OW59762   8.717   9.067   7.872
19252SOL    HW159763   8.647   9.103   7.926
19252SOL    HW259764   8.798   9.093   7.916
19253SOL     OW59765   1.375   5.295   3.450
19253SOL    HW159766   1.324   5.295   3.531
19253SOL    HW259767   1.374   5.386   3.421
19254SOL     OW59768   4.568   4.645   7.763
19254SOL    HW159769   4.625   4.574   7.793
19254SOL    HW259770   4.627   4.709   7.724
19255SOL     OW59771   5.682   9.375   9.503
19255SOL    HW159772   5.733   9.294   9.506
19255SOL    HW259773   5.701   9.412   9.417
19256SOL     OW59774   9.316   5.183   4.809
19256SOL    HW159775   9.359   5.166   4.892
19256SOL    HW259776   9.244   5.241   4.830
19257SOL     OW59777   2.519   2.377   8.303
19257SOL    HW159778   2.450   2.421   8.353
19257SOL    HW259779   2.572   2.332   8.369
19258SOL     OW59780   3.755   7.320   3.351
19258SOL    HW159781   3.767   7.316   3.256
19258SOL    HW259782   3.689   7.253   3.370
19259SOL     OW59783   1.550   9.117   9.134
19259SOL    HW159784   1.560   9.044   9.195
19259SOL    HW259785   1.475   9.166   9.167
19260SOL     OW59786   5.016   4.481  10.657
19260SOL    HW159787   4.997   4.414  10.590
19260SOL    HW259788   5.110   4.496  10.649
19261SOL     OW59789   0.284   7.357   8.829
19261SOL    HW159790   0.219   7.420   8.858
19261SOL    HW259791   0.321   7.395   8.749
19262SOL     OW59792   3.299   6.832   3.405
19262SOL    HW159793   3.273   6.798   3.490
19262SOL    HW259794   3.317   6.924   3.420
19263SOL     OW59795   4.255   9.421   1.217
19263SOL    HW159796   4.255   9.369   1.297
19263SOL    HW259797   4.238   9.357   1.147
19264SOL     OW59798   8.935   4.190   7.122
19264SOL    HW159799   8.926   4.099   7.092
19264SOL    HW259800   9.029   4.209   7.115
19265SOL     OW59801   4.245   8.537   9.527
19265SOL    HW159802   4.339   8.537   9.510
19265SOL    HW259803   4.206   8.516   9.442
19266SOL     OW59804   5.765   0.987   8.466
19266SOL    HW159805   5.706   1.034   8.407
19266SOL    HW259806   5.776   0.901   8.424
19267SOL     OW59807   5.089  10.628  10.593
19267SOL    HW159808   5.145  10.556  10.622
19267SOL    HW259809   5.067  10.606  10.502
19268SOL     OW59810   4.012   3.473   0.055
19268SOL    HW159811   4.058   3.390   0.044
19268SOL    HW259812   4.081   3.539   0.056
19269SOL     OW59813   2.665   0.552   7.557
19269SOL    HW159814   2.673   0.514   7.644
19269SOL    HW259815   2.742   0.519   7.509
19270SOL     OW59816   2.295   2.842   9.193
19270SOL    HW159817   2.329   2.753   9.201
19270SOL    HW259818   2.226   2.835   9.127
19271SOL     OW59819   2.938   5.546   1.066
19271SOL    HW159820   3.006   5.482   1.089
19271SOL    HW259821   2.897   5.509   0.987
19272SOL     OW59822   6.360   5.181   8.893
19272SOL    HW159823   6.442   5.131   8.896
19272SOL    HW259824   6.291   5.114   8.897
19273SOL     OW59825   2.781   1.266  10.094
19273SOL    HW159826   2.797   1.297  10.005
19273SOL    HW259827   2.686   1.269  10.104
19274SOL     OW59828   7.287   5.406   8.039
19274SOL    HW159829   7.247   5.419   8.125
19274SOL    HW259830   7.381   5.420   8.053
19275SOL     OW59831   4.459   5.432   6.112
19275SOL    HW159832   4.414   5.503   6.157
19275SOL    HW259833   4.471   5.364   6.179
19276SOL     OW59834   2.270   3.215   0.287
19276SOL    HW159835   2.331   3.259   0.227
19276SOL    HW259836   2.183   3.233   0.250
19277SOL     OW59837   8.973   5.064   5.054
19277SOL    HW159838   9.055   5.071   5.103
19277SOL    HW259839   8.949   4.971   5.061
19278SOL     OW59840   7.898   6.597  10.812
19278SOL    HW159841   7.960   6.526  10.795
19278SOL    HW259842   7.879   6.590  10.905
19279SOL     OW59843   3.035   7.655   3.983
19279SOL    HW159844   3.034   7.693   3.895
19279SOL    HW259845   2.943   7.647   4.006
19280SOL     OW59846   6.729   3.643   9.263
19280SOL    HW159847   6.730   3.733   9.231
19280SOL    HW259848   6.815   3.631   9.304
19281SOL     OW59849   7.716   3.033   4.225
19281SOL    HW159850   7.804   3.008   4.197
19281SOL    HW259851   7.721   3.127   4.241
19282SOL     OW59852   6.582   4.487   5.972
19282SOL    HW159853   6.561   4.574   5.940
19282SOL    HW259854   6.623   4.501   6.057
19283SOL     OW59855   1.202   3.239   6.600
19283SOL    HW159856   1.230   3.244   6.691
19283SOL    HW259857   1.107   3.252   6.602
19284SOL     OW59858   3.178   8.109   5.741
19284SOL    HW159859   3.139   8.032   5.782
19284SOL    HW259860   3.162   8.180   5.803
19285SOL     OW59861   5.834   4.661   4.053
19285SOL    HW159862   5.900   4.718   4.014
19285SOL    HW259863   5.753   4.710   4.047
19286SOL     OW59864   7.222   2.560  11.100
19286SOL    HW159865   7.259   2.568  11.012
19286SOL    HW259866   7.135   2.523  11.086
19287SOL     OW59867   7.528   2.284   3.240
19287SOL    HW159868   7.541   2.228   3.163
19287SOL    HW259869   7.451   2.337   3.218
19288SOL     OW59870   3.571   2.614   5.456
19288SOL    HW159871   3.545   2.705   5.468
19288SOL    HW259872   3.647   2.618   5.398
19289SOL     OW59873   5.491   9.536   0.298
19289SOL    HW159874   5.474   9.474   0.226
19289SOL    HW259875   5.544   9.486   0.360
19290SOL     OW59876   7.890  10.087   8.450
19290SOL    HW159877   7.801  10.082   8.484
19290SOL    HW259878   7.907  10.000   8.413
19291SOL     OW59879   8.409   6.684   1.058
19291SOL    HW159880   8.468   6.755   1.083
19291SOL    HW259881   8.461   6.630   0.998
19292SOL     OW59882   5.509   2.306   6.682
19292SOL    HW159883   5.532   2.296   6.589
19292SOL    HW259884   5.591   2.290   6.728
19293SOL     OW59885   2.199  10.838   7.645
19293SOL    HW159886   2.194  10.749   7.680
19293SOL    HW259887   2.293  10.856   7.637
19294SOL     OW59888   6.417   2.702   0.242
19294SOL    HW159889   6.511   2.687   0.231
19294SOL    HW259890   6.377   2.650   0.171
19295SOL     OW59891   5.522   4.825   4.733
19295SOL    HW159892   5.495   4.877   4.808
19295SOL    HW259893   5.494   4.736   4.754
19296SOL     OW59894   3.674   0.666   7.041
19296SOL    HW159895   3.659   0.571   7.045
19296SOL    HW259896   3.589   0.705   7.063
19297SOL     OW59897   3.982   6.472  10.252
19297SOL    HW159898   3.990   6.412  10.177
19297SOL    HW259899   4.035   6.548  10.227
19298SOL     OW59900   4.219   1.611   2.693
19298SOL    HW159901   4.279   1.664   2.641
19298SOL    HW259902   4.150   1.586   2.631
19299SOL     OW59903   1.035   1.740   3.964
19299SOL    HW159904   0.958   1.791   3.940
19299SOL    HW259905   1.016   1.651   3.932
19300SOL     OW59906   3.892   6.079   7.311
19300SOL    HW159907   3.865   6.144   7.247
19300SOL    HW259908   3.827   6.084   7.380
19301SOL     OW59909   0.372   3.931   6.726
19301SOL    HW159910   0.432   3.964   6.659
19301SOL    HW259911   0.285   3.957   6.695
19302SOL     OW59912   5.052   2.124   3.176
19302SOL    HW159913   5.120   2.057   3.163
19302SOL    HW259914   5.040   2.163   3.089
19303SOL     OW59915   7.833   7.462   1.059
19303SOL    HW159916   7.779   7.433   1.132
19303SOL    HW259917   7.779   7.526   1.013
19304SOL     OW59918   7.967   5.441   8.727
19304SOL    HW159919   8.039   5.427   8.665
19304SOL    HW259920   7.966   5.535   8.742
19305SOL     OW59921   3.395  10.197   9.407
19305SOL    HW159922   3.475  10.225   9.451
19305SOL    HW259923   3.349  10.278   9.386
19306SOL     OW59924   2.554   0.661   3.488
19306SOL    HW159925   2.605   0.675   3.568
19306SOL    HW259926   2.465   0.646   3.518
19307SOL     OW59927   7.600  11.082   6.918
19307SOL    HW159928   7.543  11.151   6.952
19307SOL    HW259929   7.570  11.068   6.828
19308SOL     OW59930  10.959  10.296   1.012
19308SOL    HW159931  10.891  10.232   0.991
19308SOL    HW259932  10.937  10.326   1.100
19309SOL     OW59933   1.077   9.358   3.882
19309SOL    HW159934   1.155   9.381   3.933
19309SOL    HW259935   1.009   9.417   3.913
19310SOL     OW59936   3.983   6.924   2.954
19310SOL    HW159937   4.024   6.984   2.892
19310SOL    HW259938   4.017   6.837   2.930
19311SOL     OW59939   0.770   2.088   5.944
19311SOL    HW159940   0.839   2.103   5.879
19311SOL    HW259941   0.691   2.126   5.905
19312SOL     OW59942   5.844   1.394   9.802
19312SOL    HW159943   5.846   1.455   9.728
19312SOL    HW259944   5.869   1.309   9.764
19313SOL     OW59945   2.720   4.238   0.542
19313SOL    HW159946   2.735   4.222   0.635
19313SOL    HW259947   2.639   4.289   0.539
19314SOL     OW59948   7.054   9.355   5.764
19314SOL    HW159949   7.125   9.419   5.762
19314SOL    HW259950   7.039   9.333   5.672
19315SOL     OW59951   5.154   6.900   9.035
19315SOL    HW159952   5.074   6.859   9.067
19315SOL    HW259953   5.223   6.837   9.055
19316SOL     OW59954   4.979   4.329   2.332
19316SOL    HW159955   5.052   4.363   2.279
19316SOL    HW259956   4.913   4.304   2.267
19317SOL     OW59957   4.687   9.045   4.474
19317SOL    HW159958   4.739   9.080   4.401
19317SOL    HW259959   4.721   9.089   4.551
19318SOL     OW59960   3.572   7.219   4.216
19318SOL    HW159961   3.589   7.126   4.234
19318SOL    HW259962   3.657   7.254   4.188
19319SOL     OW59963   7.047   5.958   8.784
19319SOL    HW159964   7.099   6.008   8.721
19319SOL    HW259965   6.973   6.015   8.805
19320SOL     OW59966   1.822   8.650  10.726
19320SOL    HW159967   1.910   8.655  10.763
19320SOL    HW259968   1.810   8.733  10.680
19321SOL     OW59969  11.029   1.670   3.365
19321SOL    HW159970  11.014   1.613   3.289
19321SOL    HW259971  11.110   1.717   3.344
19322SOL     OW59972   4.666   9.069  10.051
19322SOL    HW159973   4.675   9.162  10.070
19322SOL    HW259974   4.581   9.044  10.088
19323SOL     OW59975   2.476   5.062   1.774
19323SOL    HW159976   2.387   5.094   1.784
19323SOL    HW259977   2.527   5.139   1.749
19324SOL     OW59978   8.769  10.025   3.920
19324SOL    HW159979   8.801  10.115   3.925
19324SOL    HW259980   8.844   9.971   3.946
19325SOL     OW59981   4.283   1.278   1.345
19325SOL    HW159982   4.256   1.295   1.435
19325SOL    HW259983   4.207   1.302   1.292
19326SOL     OW59984   9.091   9.148   7.391
19326SOL    HW159985   9.038   9.149   7.471
19326SOL    HW259986   9.046   9.208   7.331
19327SOL     OW59987   8.839   6.760   7.706
19327SOL    HW159988   8.852   6.846   7.745
19327SOL    HW259989   8.905   6.755   7.637
19328SOL     OW59990   9.358   6.871  10.409
19328SOL    HW159991   9.402   6.786  10.415
19328SOL    HW259992   9.419   6.926  10.360
19329SOL     OW59993   6.632   0.210  10.275
19329SOL    HW159994   6.693   0.145  10.239
19329SOL    HW259995   6.575   0.159  10.333
19330SOL     OW59996   8.963   2.895   1.703
19330SOL    HW159997   8.922   2.827   1.757
19330SOL    HW259998   9.034   2.850   1.657
19331SOL     OW59999   1.625   2.643  10.382
19331SOL    HW160000   1.530   2.646  10.378
19331SOL    HW260001   1.644   2.602  10.466
19332SOL     OW60002   5.806   9.844   2.380
19332SOL    HW160003   5.760   9.852   2.463
19332SOL    HW260004   5.835   9.933   2.359
19333SOL     OW60005   2.795   5.183   2.126
19333SOL    HW160006   2.832   5.224   2.204
19333SOL    HW260007   2.837   5.228   2.053
19334SOL     OW60008   9.952   1.987   5.398
19334SOL    HW160009   9.893   1.937   5.454
19334SOL    HW260010  10.040   1.956   5.422
19335SOL     OW60011   2.295   5.538   4.582
19335SOL    HW160012   2.292   5.579   4.495
19335SOL    HW260013   2.280   5.445   4.565
19336SOL     OW60014   1.401   6.244   5.553
19336SOL    HW160015   1.357   6.317   5.596
19336SOL    HW260016   1.367   6.244   5.463
19337SOL     OW60017   4.191   3.328   3.604
19337SOL    HW160018   4.127   3.292   3.541
19337SOL    HW260019   4.275   3.289   3.577
19338SOL     OW60020   8.091   2.914   7.781
19338SOL    HW160021   8.185   2.899   7.773
19338SOL    HW260022   8.057   2.897   7.693
19339SOL     OW60023  10.404   3.888   5.895
19339SOL    HW160024  10.332   3.827   5.880
19339SOL    HW260025  10.385   3.927   5.980
19340SOL     OW60026   3.131   3.464   0.173
19340SOL    HW160027   3.138   3.531   0.241
19340SOL    HW260028   3.087   3.508   0.101
19341SOL     OW60029   8.179   7.930   6.702
19341SOL    HW160030   8.239   7.921   6.776
19341SOL    HW260031   8.227   7.984   6.639
19342SOL     OW60032   9.610   8.085   1.524
19342SOL    HW160033   9.666   8.020   1.480
19342SOL    HW260034   9.552   8.117   1.455
19343SOL     OW60035   7.662   2.992  10.615
19343SOL    HW160036   7.736   3.031  10.661
19343SOL    HW260037   7.695   2.973  10.527
19344SOL     OW60038   7.963   8.384   8.659
19344SOL    HW160039   7.985   8.322   8.729
19344SOL    HW260040   8.039   8.441   8.653
19345SOL     OW60041   8.321   7.766  10.621
19345SOL    HW160042   8.366   7.812  10.692
19345SOL    HW260043   8.355   7.806  10.541
19346SOL     OW60044   6.216   9.915   7.276
19346SOL    HW160045   6.236   9.878   7.190
19346SOL    HW260046   6.126   9.889   7.292
19347SOL     OW60047   1.461  10.832   9.786
19347SOL    HW160048   1.415  10.762   9.741
19347SOL    HW260049   1.542  10.791   9.817
19348SOL     OW60050   2.633   8.156  10.751
19348SOL    HW160051   2.678   8.209  10.816
19348SOL    HW260052   2.593   8.085  10.801
19349SOL     OW60053   1.002  10.968   8.216
19349SOL    HW160054   0.935  11.035   8.226
19349SOL    HW260055   0.995  10.940   8.124
19350SOL     OW60056   8.696   4.236   9.454
19350SOL    HW160057   8.707   4.294   9.529
19350SOL    HW260058   8.710   4.292   9.378
19351SOL     OW60059   7.397   0.916   4.358
19351SOL    HW160060   7.352   0.926   4.274
19351SOL    HW260061   7.374   0.994   4.407
19352SOL     OW60062   5.747   7.958   9.240
19352SOL    HW160063   5.756   7.885   9.178
19352SOL    HW260064   5.690   7.923   9.309
19353SOL     OW60065  10.670   7.056   6.783
19353SOL    HW160066  10.751   7.059   6.732
19353SOL    HW260067  10.654   6.962   6.797
19354SOL     OW60068   0.763   5.179   9.016
19354SOL    HW160069   0.774   5.131   9.098
19354SOL    HW260070   0.779   5.114   8.947
19355SOL     OW60071   7.795   0.766   8.725
19355SOL    HW160072   7.740   0.761   8.803
19355SOL    HW260073   7.767   0.691   8.671
19356SOL     OW60074   7.505   6.563   6.903
19356SOL    HW160075   7.550   6.509   6.838
19356SOL    HW260076   7.520   6.653   6.874
19357SOL     OW60077   2.378  11.041   0.593
19357SOL    HW160078   2.409  11.108   0.531
19357SOL    HW260079   2.322  10.985   0.540
19358SOL     OW60080  10.655   2.121   7.827
19358SOL    HW160081  10.637   2.028   7.809
19358SOL    HW260082  10.578   2.151   7.874
19359SOL     OW60083   0.360   9.254   8.495
19359SOL    HW160084   0.362   9.340   8.537
19359SOL    HW260085   0.367   9.273   8.401
19360SOL     OW60086   7.023   4.752   6.523
19360SOL    HW160087   7.101   4.808   6.521
19360SOL    HW260088   6.951   4.811   6.545
19361SOL     OW60089   8.278   5.776   5.840
19361SOL    HW160090   8.242   5.725   5.913
19361SOL    HW260091   8.272   5.717   5.764
19362SOL     OW60092   1.380   6.318   7.154
19362SOL    HW160093   1.455   6.265   7.182
19362SOL    HW260094   1.398   6.405   7.188
19363SOL     OW60095  10.537   9.047   1.690
19363SOL    HW160096  10.600   8.982   1.722
19363SOL    HW260097  10.451   9.008   1.707
19364SOL     OW60098   6.875   3.374  10.497
19364SOL    HW160099   6.810   3.339  10.436
19364SOL    HW260100   6.923   3.296  10.526
19365SOL     OW60101   8.775   6.191   6.573
19365SOL    HW160102   8.733   6.120   6.623
19365SOL    HW260103   8.704   6.251   6.552
19366SOL     OW60104   0.228   4.754   5.826
19366SOL    HW160105   0.289   4.824   5.803
19366SOL    HW260106   0.172   4.745   5.748
19367SOL     OW60107   5.914   6.207   1.520
19367SOL    HW160108   5.946   6.248   1.440
19367SOL    HW260109   5.842   6.263   1.549
19368SOL     OW60110   0.152   6.361   9.656
19368SOL    HW160111   0.087   6.315   9.709
19368SOL    HW260112   0.216   6.395   9.719
19369SOL     OW60113   2.912   2.031   8.756
19369SOL    HW160114   2.949   1.966   8.695
19369SOL    HW260115   2.867   1.978   8.822
19370SOL     OW60116   5.858   1.818  10.186
19370SOL    HW160117   5.872   1.736  10.137
19370SOL    HW260118   5.830   1.881  10.119
19371SOL     OW60119   3.413   3.968   4.226
19371SOL    HW160120   3.443   3.884   4.191
19371SOL    HW260121   3.354   4.001   4.158
19372SOL     OW60122   6.171   4.602   1.020
19372SOL    HW160123   6.099   4.631   0.964
19372SOL    HW260124   6.145   4.514   1.049
19373SOL     OW60125   1.957   6.587   9.866
19373SOL    HW160126   1.883   6.632   9.906
19373SOL    HW260127   1.963   6.624   9.778
19374SOL     OW60128   0.853   8.657   9.400
19374SOL    HW160129   0.841   8.751   9.392
19374SOL    HW260130   0.929   8.637   9.344
19375SOL     OW60131   0.549   5.846   6.964
19375SOL    HW160132   0.535   5.807   7.050
19375SOL    HW260133   0.472   5.900   6.948
19376SOL     OW60134   3.231   0.481   8.725
19376SOL    HW160135   3.182   0.529   8.658
19376SOL    HW260136   3.314   0.528   8.733
19377SOL     OW60137   5.493   9.408  10.688
19377SOL    HW160138   5.436   9.349  10.738
19377SOL    HW260139   5.520   9.475  10.751
19378SOL     OW60140   3.576   6.681  10.583
19378SOL    HW160141   3.593   6.775  10.589
19378SOL    HW260142   3.644   6.641  10.637
19379SOL     OW60143   1.285   9.946   9.538
19379SOL    HW160144   1.251   9.856   9.532
19379SOL    HW260145   1.325   9.951   9.625
19380SOL     OW60146   6.641   9.592   4.717
19380SOL    HW160147   6.662   9.578   4.809
19380SOL    HW260148   6.676   9.514   4.672
19381SOL     OW60149   8.645   6.612   9.328
19381SOL    HW160150   8.566   6.593   9.378
19381SOL    HW260151   8.700   6.534   9.341
19382SOL     OW60152   5.636   9.940  11.067
19382SOL    HW160153   5.698  10.013  11.062
19382SOL    HW260154   5.646   9.906  11.156
19383SOL     OW60155   1.340   6.486   7.788
19383SOL    HW160156   1.427   6.523   7.776
19383SOL    HW260157   1.280   6.554   7.758
19384SOL     OW60158   2.756   8.588   6.843
19384SOL    HW160159   2.848   8.602   6.819
19384SOL    HW260160   2.712   8.571   6.759
19385SOL     OW60161   8.832   8.671   2.393
19385SOL    HW160162   8.897   8.712   2.449
19385SOL    HW260163   8.877   8.659   2.309
19386SOL     OW60164  10.506   8.107   2.795
19386SOL    HW160165  10.423   8.153   2.784
19386SOL    HW260166  10.556   8.128   2.716
19387SOL     OW60167   7.272   4.051   8.559
19387SOL    HW160168   7.317   4.063   8.642
19387SOL    HW260169   7.245   4.139   8.533
19388SOL     OW60170   8.664   1.619   0.999
19388SOL    HW160171   8.733   1.577   0.947
19388SOL    HW260172   8.603   1.548   1.019
19389SOL     OW60173   2.471   7.720   4.540
19389SOL    HW160174   2.498   7.806   4.573
19389SOL    HW260175   2.392   7.737   4.489
19390SOL     OW60176   5.838   8.220  10.748
19390SOL    HW160177   5.900   8.259  10.809
19390SOL    HW260178   5.868   8.249  10.662
19391SOL     OW60179   0.661   5.038   3.811
19391SOL    HW160180   0.632   5.086   3.734
19391SOL    HW260181   0.584   5.034   3.868
19392SOL     OW60182   6.480   0.052   7.494
19392SOL    HW160183   6.446   0.073   7.407
19392SOL    HW260184   6.490   0.136   7.537
19393SOL     OW60185   8.017   4.939   8.088
19393SOL    HW160186   8.055   4.931   8.000
19393SOL    HW260187   8.093   4.952   8.145
19394SOL     OW60188   5.244   5.559   4.012
19394SOL    HW160189   5.220   5.599   4.095
19394SOL    HW260190   5.184   5.485   4.002
19395SOL     OW60191   8.129   5.121   1.535
19395SOL    HW160192   8.168   5.074   1.461
19395SOL    HW260193   8.118   5.054   1.603
19396SOL     OW60194   5.536   9.621  10.858
19396SOL    HW160195   5.501   9.694  10.908
19396SOL    HW260196   5.606   9.585  10.913
19397SOL     OW60197   6.607   3.308   2.361
19397SOL    HW160198   6.641   3.383   2.410
19397SOL    HW260199   6.512   3.315   2.368
19398SOL     OW60200   3.691   9.199   9.293
19398SOL    HW160201   3.619   9.144   9.263
19398SOL    HW260202   3.659   9.288   9.284
19399SOL     OW60203   3.432   3.787   0.040
19399SOL    HW160204   3.374   3.791   0.116
19399SOL    HW260205   3.510   3.835   0.067
19400SOL     OW60206   9.806   7.261   9.247
19400SOL    HW160207   9.758   7.191   9.203
19400SOL    HW260208   9.790   7.338   9.193
19401SOL     OW60209   4.666   9.314   9.693
19401SOL    HW160210   4.739   9.309   9.755
19401SOL    HW260211   4.602   9.371   9.735
19402SOL     OW60212   7.711   7.177   9.342
19402SOL    HW160213   7.767   7.231   9.286
19402SOL    HW260214   7.730   7.087   9.314
19403SOL     OW60215   0.290  11.102   8.140
19403SOL    HW160216   0.244  11.049   8.205
19403SOL    HW260217   0.376  11.118   8.177
19404SOL     OW60218   2.688   8.465  10.229
19404SOL    HW160219   2.718   8.392  10.283
19404SOL    HW260220   2.606   8.493  10.270
19405SOL     OW60221   2.325   7.162   0.116
19405SOL    HW160222   2.402   7.191   0.164
19405SOL    HW260223   2.264   7.235   0.121
19406SOL     OW60224   7.591   3.959  11.020
19406SOL    HW160225   7.597   4.026  11.087
19406SOL    HW260226   7.637   3.884  11.057
19407SOL     OW60227   0.604   4.836   8.798
19407SOL    HW160228   0.578   4.838   8.706
19407SOL    HW260229   0.529   4.873   8.845
19408SOL     OW60230   9.926   6.007  10.873
19408SOL    HW160231   9.991   6.076  10.885
19408SOL    HW260232   9.973   5.927  10.897
19409SOL     OW60233   4.379   3.471   7.526
19409SOL    HW160234   4.386   3.555   7.571
19409SOL    HW260235   4.291   3.470   7.488
19410SOL     OW60236   7.771   6.919   9.490
19410SOL    HW160237   7.790   6.836   9.534
19410SOL    HW260238   7.684   6.944   9.521
19411SOL     OW60239   4.413   4.454   6.195
19411SOL    HW160240   4.486   4.511   6.219
19411SOL    HW260241   4.337   4.490   6.241
19412SOL     OW60242   7.138   0.626   2.666
19412SOL    HW160243   7.081   0.615   2.742
19412SOL    HW260244   7.111   0.709   2.628
19413SOL     OW60245   9.866   7.741   6.245
19413SOL    HW160246   9.920   7.780   6.176
19413SOL    HW260247   9.835   7.815   6.296
19414SOL     OW60248   7.597   4.952   1.455
19414SOL    HW160249   7.626   4.896   1.527
19414SOL    HW260250   7.503   4.935   1.447
19415SOL     OW60251   8.667   3.171  10.628
19415SOL    HW160252   8.738   3.202  10.684
19415SOL    HW260253   8.639   3.249  10.580
19416SOL     OW60254   9.426   0.791   0.928
19416SOL    HW160255   9.514   0.753   0.926
19416SOL    HW260256   9.368   0.717   0.910
19417SOL     OW60257   4.409   5.986   8.601
19417SOL    HW160258   4.395   5.901   8.643
19417SOL    HW260259   4.372   5.976   8.513
19418SOL     OW60260   3.391   0.697  10.991
19418SOL    HW160261   3.349   0.752  10.925
19418SOL    HW260262   3.323   0.635  11.018
19419SOL     OW60263   5.445   9.669  10.126
19419SOL    HW160264   5.432   9.597  10.064
19419SOL    HW260265   5.407   9.637  10.208
19420SOL     OW60266   4.845   8.833   7.323
19420SOL    HW160267   4.879   8.834   7.233
19420SOL    HW260268   4.793   8.913   7.330
19421SOL     OW60269   1.058   9.539   1.701
19421SOL    HW160270   0.981   9.542   1.644
19421SOL    HW260271   1.112   9.612   1.671
19422SOL     OW60272   7.165   6.813   2.829
19422SOL    HW160273   7.185   6.791   2.738
19422SOL    HW260274   7.079   6.774   2.844
19423SOL     OW60275   3.805   8.659   1.559
19423SOL    HW160276   3.841   8.577   1.524
19423SOL    HW260277   3.839   8.663   1.648
19424SOL     OW60278   5.813   8.182   8.892
19424SOL    HW160279   5.736   8.209   8.842
19424SOL    HW260280   5.859   8.121   8.834
19425SOL     OW60281   1.246   6.863   6.827
19425SOL    HW160282   1.259   6.801   6.899
19425SOL    HW260283   1.196   6.935   6.865
19426SOL     OW60284   7.123   5.914   4.311
19426SOL    HW160285   7.197   5.871   4.268
19426SOL    HW260286   7.160   5.950   4.391
19427SOL     OW60287   2.022   3.718   2.989
19427SOL    HW160288   2.008   3.810   2.968
19427SOL    HW260289   1.994   3.671   2.910
19428SOL     OW60290   5.316   6.192  10.628
19428SOL    HW160291   5.244   6.129  10.628
19428SOL    HW260292   5.350   6.190  10.717
19429SOL     OW60293   3.486   0.127   0.892
19429SOL    HW160294   3.536   0.191   0.942
19429SOL    HW260295   3.528   0.043   0.911
19430SOL     OW60296  11.008   1.997   5.250
19430SOL    HW160297  11.019   2.025   5.159
19430SOL    HW260298  10.943   1.927   5.245
19431SOL     OW60299   7.458   0.134   2.942
19431SOL    HW160300   7.517   0.193   2.895
19431SOL    HW260301   7.504   0.115   3.024
19432SOL     OW60302   9.880   3.220  10.615
19432SOL    HW160303   9.931   3.161  10.670
19432SOL    HW260304   9.831   3.274  10.676
19433SOL     OW60305   4.536   8.253   4.006
19433SOL    HW160306   4.545   8.276   3.913
19433SOL    HW260307   4.605   8.302   4.050
19434SOL     OW60308   4.135   4.093   7.312
19434SOL    HW160309   4.213   4.040   7.328
19434SOL    HW260310   4.166   4.165   7.258
19435SOL     OW60311   0.678   8.248   1.363
19435SOL    HW160312   0.680   8.223   1.270
19435SOL    HW260313   0.598   8.208   1.396
19436SOL     OW60314   3.287   6.015  10.837
19436SOL    HW160315   3.360   5.986  10.891
19436SOL    HW260316   3.240   6.078  10.891
19437SOL     OW60317   2.944  10.712   9.144
19437SOL    HW160318   2.953  10.748   9.056
19437SOL    HW260319   2.865  10.753   9.179
19438SOL     OW60320   2.786   9.326   6.897
19438SOL    HW160321   2.865   9.294   6.852
19438SOL    HW260322   2.722   9.336   6.827
19439SOL     OW60323   9.503   0.524  10.854
19439SOL    HW160324   9.540   0.597  10.903
19439SOL    HW260325   9.510   0.550  10.762
19440SOL     OW60326   6.880   0.061   0.802
19440SOL    HW160327   6.956   0.009   0.829
19440SOL    HW260328   6.822  -0.002   0.759
19441SOL     OW60329   6.841   4.885   1.260
19441SOL    HW160330   6.758   4.840   1.244
19441SOL    HW260331   6.858   4.872   1.353
19442SOL     OW60332   9.085   8.163   0.105
19442SOL    HW160333   9.106   8.253   0.127
19442SOL    HW260334   9.006   8.169   0.051
19443SOL     OW60335   6.666   5.402   8.763
19443SOL    HW160336   6.708   5.438   8.685
19443SOL    HW260337   6.575   5.430   8.756
19444SOL     OW60338   4.653   5.152   9.876
19444SOL    HW160339   4.595   5.186   9.944
19444SOL    HW260340   4.603   5.162   9.795
19445SOL     OW60341   6.338   3.880   3.845
19445SOL    HW160342   6.311   3.957   3.795
19445SOL    HW260343   6.416   3.847   3.799
19446SOL     OW60344   4.144   3.991   1.868
19446SOL    HW160345   4.136   3.985   1.773
19446SOL    HW260346   4.235   4.015   1.883
19447SOL     OW60347   4.989   6.561  10.530
19447SOL    HW160348   4.924   6.521  10.587
19447SOL    HW260349   5.059   6.589  10.589
19448SOL     OW60350   9.022  10.291   3.638
19448SOL    HW160351   8.993  10.227   3.703
19448SOL    HW260352   8.941  10.330   3.605
19449SOL     OW60353   3.016   0.798   0.419
19449SOL    HW160354   3.102   0.828   0.449
19449SOL    HW260355   3.000   0.846   0.338
19450SOL     OW60356   0.872   2.997   8.429
19450SOL    HW160357   0.933   2.924   8.441
19450SOL    HW260358   0.843   3.019   8.517
19451SOL     OW60359   7.226   5.936   1.543
19451SOL    HW160360   7.209   5.895   1.458
19451SOL    HW260361   7.262   5.865   1.596
19452SOL     OW60362   6.191   7.601  10.774
19452SOL    HW160363   6.101   7.594  10.742
19452SOL    HW260364   6.202   7.525  10.831
19453SOL     OW60365   0.013   5.245   9.282
19453SOL    HW160366   0.015   5.305   9.356
19453SOL    HW260367   0.103   5.215   9.273
19454SOL     OW60368   3.568   1.164   2.389
19454SOL    HW160369   3.524   1.137   2.308
19454SOL    HW260370   3.650   1.204   2.360
19455SOL     OW60371   4.504   5.218   3.000
19455SOL    HW160372   4.467   5.278   2.935
19455SOL    HW260373   4.514   5.271   3.079
19456SOL     OW60374   5.071   2.445   6.174
19456SOL    HW160375   5.044   2.416   6.261
19456SOL    HW260376   5.137   2.380   6.146
19457SOL     OW60377   3.425   5.470   1.044
19457SOL    HW160378   3.449   5.462   0.951
19457SOL    HW260379   3.500   5.435   1.091
19458SOL     OW60380   3.896   3.080   7.873
19458SOL    HW160381   3.955   3.084   7.798
19458SOL    HW260382   3.913   3.160   7.921
19459SOL     OW60383   6.419   2.366   1.554
19459SOL    HW160384   6.474   2.330   1.484
19459SOL    HW260385   6.336   2.320   1.544
19460SOL     OW60386   4.356   5.816   3.356
19460SOL    HW160387   4.297   5.886   3.383
19460SOL    HW260388   4.304   5.736   3.365
19461SOL     OW60389  10.939   6.471   2.910
19461SOL    HW160390  10.950   6.529   2.835
19461SOL    HW260391  10.845   6.454   2.914
19462SOL     OW60392   9.495   4.783   3.779
19462SOL    HW160393   9.547   4.791   3.859
19462SOL    HW260394   9.545   4.831   3.713
19463SOL     OW60395   1.328   7.035   7.672
19463SOL    HW160396   1.344   7.059   7.763
19463SOL    HW260397   1.287   7.112   7.633
19464SOL     OW60398   1.975   4.807   1.322
19464SOL    HW160399   2.059   4.846   1.298
19464SOL    HW260400   1.966   4.825   1.415
19465SOL     OW60401   5.865   7.428   2.513
19465SOL    HW160402   5.879   7.521   2.531
19465SOL    HW260403   5.946   7.385   2.542
19466SOL     OW60404   6.796   6.912   8.026
19466SOL    HW160405   6.806   6.878   8.115
19466SOL    HW260406   6.814   6.837   7.969
19467SOL     OW60407   2.211   9.523   6.631
19467SOL    HW160408   2.156   9.485   6.699
19467SOL    HW260409   2.229   9.450   6.571
19468SOL     OW60410   2.835   6.668   9.288
19468SOL    HW160411   2.915   6.715   9.313
19468SOL    HW260412   2.764   6.726   9.313
19469SOL     OW60413   4.548   8.230   0.342
19469SOL    HW160414   4.460   8.247   0.309
19469SOL    HW260415   4.573   8.310   0.387
19470SOL     OW60416   5.982   7.813   0.229
19470SOL    HW160417   5.976   7.906   0.210
19470SOL    HW260418   5.979   7.771   0.143
19471SOL     OW60419   3.476   9.520   8.140
19471SOL    HW160420   3.455   9.445   8.084
19471SOL    HW260421   3.394   9.541   8.184
19472SOL     OW60422   1.293   5.798  10.182
19472SOL    HW160423   1.215   5.823  10.133
19472SOL    HW260424   1.267   5.719  10.230
19473SOL     OW60425   9.918   4.268   7.396
19473SOL    HW160426   9.861   4.251   7.321
19473SOL    HW260427  10.006   4.273   7.358
19474SOL     OW60428   0.326   9.800   0.912
19474SOL    HW160429   0.251   9.772   0.964
19474SOL    HW260430   0.398   9.806   0.974
19475SOL     OW60431   2.624   4.992   4.395
19475SOL    HW160432   2.706   5.009   4.442
19475SOL    HW260433   2.558   4.984   4.463
19476SOL     OW60434   9.076   2.323   0.724
19476SOL    HW160435   8.981   2.335   0.718
19476SOL    HW260436   9.091   2.234   0.691
19477SOL     OW60437   8.766  10.874   4.870
19477SOL    HW160438   8.708  10.802   4.846
19477SOL    HW260439   8.853  10.835   4.876
19478SOL     OW60440   4.675   9.448  10.358
19478SOL    HW160441   4.725   9.416  10.433
19478SOL    HW260442   4.599   9.492  10.396
19479SOL     OW60443   4.175   0.203  10.130
19479SOL    HW160444   4.164   0.246  10.215
19479SOL    HW260445   4.123   0.123  10.137
19480SOL     OW60446   2.926   3.411   7.874
19480SOL    HW160447   2.836   3.378   7.872
19480SOL    HW260448   2.926   3.478   7.942
19481SOL     OW60449  10.061   5.793   9.830
19481SOL    HW160450  10.111   5.859   9.782
19481SOL    HW260451  10.060   5.823   9.920
19482SOL     OW60452   0.034   4.730   7.695
19482SOL    HW160453   0.115   4.779   7.689
19482SOL    HW260454   0.001   4.726   7.605
19483SOL     OW60455   7.987   5.800   4.850
19483SOL    HW160456   7.974   5.819   4.757
19483SOL    HW260457   8.019   5.882   4.887
19484SOL     OW60458   5.261  10.875  10.021
19484SOL    HW160459   5.290  10.872  10.112
19484SOL    HW260460   5.286  10.790   9.984
19485SOL     OW60461   8.525   7.623   9.612
19485SOL    HW160462   8.512   7.712   9.580
19485SOL    HW260463   8.516   7.630   9.707
19486SOL     OW60464   0.462   4.754   6.912
19486SOL    HW160465   0.550   4.735   6.946
19486SOL    HW260466   0.416   4.670   6.917
19487SOL     OW60467   7.167  10.262   3.907
19487SOL    HW160468   7.150  10.223   3.821
19487SOL    HW260469   7.083  10.259   3.952
19488SOL     OW60470   4.150   8.207   1.807
19488SOL    HW160471   4.074   8.189   1.751
19488SOL    HW260472   4.225   8.205   1.747
19489SOL     OW60473   4.396   4.608   5.103
19489SOL    HW160474   4.429   4.596   5.192
19489SOL    HW260475   4.466   4.656   5.058
19490SOL     OW60476   7.019   4.989   0.519
19490SOL    HW160477   6.989   4.982   0.428
19490SOL    HW260478   7.069   4.909   0.534
19491SOL     OW60479   5.154   5.481   6.247
19491SOL    HW160480   5.183   5.568   6.273
19491SOL    HW260481   5.235   5.436   6.222
19492SOL     OW60482   2.682   6.451   4.845
19492SOL    HW160483   2.615   6.436   4.911
19492SOL    HW260484   2.659   6.534   4.805
19493SOL     OW60485   1.720  10.600   6.985
19493SOL    HW160486   1.748  10.691   6.998
19493SOL    HW260487   1.654  10.585   7.052
19494SOL     OW60488   4.810   2.476  10.591
19494SOL    HW160489   4.821   2.521  10.675
19494SOL    HW260490   4.772   2.391  10.614
19495SOL     OW60491   0.718   8.647   1.960
19495SOL    HW160492   0.761   8.667   1.877
19495SOL    HW260493   0.758   8.565   1.989
19496SOL     OW60494   8.102   9.586   7.234
19496SOL    HW160495   8.057   9.653   7.285
19496SOL    HW260496   8.173   9.633   7.190
19497SOL     OW60497   7.694   1.143   6.708
19497SOL    HW160498   7.787   1.121   6.718
19497SOL    HW260499   7.652   1.059   6.687
19498SOL     OW60500   8.633   8.702  10.681
19498SOL    HW160501   8.676   8.787  10.682
19498SOL    HW260502   8.638   8.671  10.771
19499SOL     OW60503   5.858   8.045   3.495
19499SOL    HW160504   5.834   8.123   3.544
19499SOL    HW260505   5.899   8.078   3.415
19500SOL     OW60506  10.940  10.157   0.075
19500SOL    HW160507  10.941  10.122   0.164
19500SOL    HW260508  11.009  10.223   0.075
19501SOL     OW60509   2.527   2.475   7.191
19501SOL    HW160510   2.507   2.490   7.283
19501SOL    HW260511   2.556   2.384   7.187
19502SOL     OW60512   3.084   2.179   0.390
19502SOL    HW160513   3.011   2.237   0.408
19502SOL    HW260514   3.070   2.151   0.299
19503SOL     OW60515   8.926   5.777   0.962
19503SOL    HW160516   8.862   5.708   0.981
19503SOL    HW260517   8.990   5.735   0.905
19504SOL     OW60518   9.102   7.205   8.888
19504SOL    HW160519   9.147   7.145   8.828
19504SOL    HW260520   9.144   7.289   8.873
19505SOL     OW60521   1.752   8.144   0.318
19505SOL    HW160522   1.756   8.171   0.409
19505SOL    HW260523   1.777   8.222   0.268
19506SOL     OW60524   3.097   6.799   5.969
19506SOL    HW160525   3.151   6.803   5.890
19506SOL    HW260526   3.066   6.888   5.981
19507SOL     OW60527   6.684   6.823   1.891
19507SOL    HW160528   6.670   6.774   1.972
19507SOL    HW260529   6.706   6.756   1.826
19508SOL     OW60530   7.285   9.051   0.154
19508SOL    HW160531   7.256   9.132   0.196
19508SOL    HW260532   7.331   9.080   0.075
19509SOL     OW60533   0.422   1.224   8.231
19509SOL    HW160534   0.383   1.136   8.236
19509SOL    HW260535   0.420   1.257   8.320
19510SOL     OW60536   2.029   3.964   4.233
19510SOL    HW160537   2.053   3.954   4.141
19510SOL    HW260538   2.043   4.056   4.251
19511SOL     OW60539   4.058  10.132   7.506
19511SOL    HW160540   3.994  10.166   7.568
19511SOL    HW260541   4.134  10.190   7.514
19512SOL     OW60542   4.321   0.400   3.482
19512SOL    HW160543   4.262   0.428   3.412
19512SOL    HW260544   4.342   0.309   3.460
19513SOL     OW60545   8.004   5.870   4.196
19513SOL    HW160546   8.063   5.805   4.235
19513SOL    HW260547   7.996   5.843   4.104
19514SOL     OW60548   0.576   5.337  11.034
19514SOL    HW160549   0.562   5.255  10.986
19514SOL    HW260550   0.654   5.375  10.993
19515SOL     OW60551   5.478   7.994   9.052
19515SOL    HW160552   5.465   7.899   9.056
19515SOL    HW260553   5.573   8.005   9.041
19516SOL     OW60554   7.206  10.714   4.115
19516SOL    HW160555   7.231  10.692   4.204
19516SOL    HW260556   7.289  10.732   4.070
19517SOL     OW60557   7.729  11.018   8.549
19517SOL    HW160558   7.784  11.096   8.559
19517SOL    HW260559   7.785  10.955   8.503
19518SOL     OW60560   1.674   3.328  10.005
19518SOL    HW160561   1.711   3.320  10.093
19518SOL    HW260562   1.672   3.422   9.987
19519SOL     OW60563   5.396   5.452  10.544
19519SOL    HW160564   5.487   5.473  10.564
19519SOL    HW260565   5.365   5.526  10.491
19520SOL     OW60566   5.170   2.289   3.981
19520SOL    HW160567   5.204   2.257   3.897
19520SOL    HW260568   5.101   2.350   3.956
19521SOL     OW60569   5.103   2.119   4.625
19521SOL    HW160570   5.096   2.124   4.720
19521SOL    HW260571   5.072   2.031   4.603
19522SOL     OW60572   3.547   9.557   9.902
19522SOL    HW160573   3.519   9.473   9.865
19522SOL    HW260574   3.642   9.556   9.892
19523SOL     OW60575   8.970   6.752   0.246
19523SOL    HW160576   8.979   6.669   0.293
19523SOL    HW260577   9.014   6.816   0.301
19524SOL     OW60578   1.116  10.810   7.275
19524SOL    HW160579   1.174  10.755   7.328
19524SOL    HW260580   1.030  10.802   7.316
19525SOL     OW60581   2.520   9.550   2.478
19525SOL    HW160582   2.595   9.588   2.524
19525SOL    HW260583   2.516   9.459   2.509
19526SOL     OW60584   7.456   1.798   3.035
19526SOL    HW160585   7.501   1.808   3.119
19526SOL    HW260586   7.432   1.705   3.032
19527SOL     OW60587   1.255   1.056   0.148
19527SOL    HW160588   1.262   1.079   0.241
19527SOL    HW260589   1.260   0.960   0.147
19528SOL     OW60590   2.659   4.248   2.411
19528SOL    HW160591   2.748   4.216   2.428
19528SOL    HW260592   2.671   4.338   2.382
19529SOL     OW60593   5.451   9.679   5.565
19529SOL    HW160594   5.375   9.708   5.515
19529SOL    HW260595   5.424   9.595   5.603
19530SOL     OW60596   3.440   4.036  10.058
19530SOL    HW160597   3.384   3.986   9.998
19530SOL    HW260598   3.528   4.003  10.041
19531SOL     OW60599   6.400   8.698   2.717
19531SOL    HW160600   6.410   8.775   2.661
19531SOL    HW260601   6.473   8.640   2.691
19532SOL     OW60602   7.226   8.123  10.511
19532SOL    HW160603   7.161   8.093  10.575
19532SOL    HW260604   7.188   8.203  10.474
19533SOL     OW60605   2.652  10.149   7.025
19533SOL    HW160606   2.617  10.071   7.068
19533SOL    HW260607   2.637  10.134   6.931
19534SOL     OW60608   8.387   8.308   1.677
19534SOL    HW160609   8.414   8.302   1.585
19534SOL    HW260610   8.299   8.344   1.673
19535SOL     OW60611  10.884   1.962   1.821
19535SOL    HW160612  10.811   1.902   1.837
19535SOL    HW260613  10.851   2.047   1.848
19536SOL     OW60614   3.660   7.455   2.672
19536SOL    HW160615   3.677   7.364   2.698
19536SOL    HW260616   3.638   7.500   2.753
19537SOL     OW60617   4.116   6.875   7.376
19537SOL    HW160618   4.171   6.825   7.315
19537SOL    HW260619   4.122   6.965   7.345
19538SOL     OW60620   5.133   8.395   7.390
19538SOL    HW160621   5.164   8.387   7.480
19538SOL    HW260622   5.045   8.432   7.397
19539SOL     OW60623   4.603   9.952   4.635
19539SOL    HW160624   4.533   9.963   4.570
19539SOL    HW260625   4.684   9.962   4.584
19540SOL     OW60626   2.510   4.234   1.471
19540SOL    HW160627   2.484   4.186   1.392
19540SOL    HW260628   2.428   4.271   1.504
19541SOL     OW60629   5.507   9.750   2.689
19541SOL    HW160630   5.578   9.813   2.702
19541SOL    HW260631   5.551   9.670   2.659
19542SOL     OW60632   2.225   6.319   5.419
19542SOL    HW160633   2.158   6.250   5.425
19542SOL    HW260634   2.299   6.276   5.376
19543SOL     OW60635   5.292   7.711   4.357
19543SOL    HW160636   5.223   7.677   4.414
19543SOL    HW260637   5.349   7.761   4.415
19544SOL     OW60638   8.259  10.959   8.438
19544SOL    HW160639   8.190  10.991   8.380
19544SOL    HW260640   8.284  10.875   8.400
19545SOL     OW60641   6.444   1.942   0.555
19545SOL    HW160642   6.359   1.922   0.593
19545SOL    HW260643   6.507   1.921   0.624
19546SOL     OW60644   4.025   8.209   3.980
19546SOL    HW160645   4.030   8.149   4.054
19546SOL    HW260646   4.107   8.258   3.983
19547SOL     OW60647   9.160  10.116   6.312
19547SOL    HW160648   9.180  10.136   6.403
19547SOL    HW260649   9.177  10.022   6.304
19548SOL     OW60650   3.143   4.523   0.774
19548SOL    HW160651   3.185   4.438   0.758
19548SOL    HW260652   3.049   4.505   0.765
19549SOL     OW60653   8.533   4.769   2.106
19549SOL    HW160654   8.588   4.694   2.084
19549SOL    HW260655   8.582   4.815   2.174
19550SOL     OW60656   3.032  10.550   2.080
19550SOL    HW160657   3.122  10.548   2.047
19550SOL    HW260658   3.019  10.641   2.107
19551SOL     OW60659   8.447   5.086   2.036
19551SOL    HW160660   8.504   5.108   1.962
19551SOL    HW260661   8.464   4.993   2.052
19552SOL     OW60662  10.559   7.659   9.358
19552SOL    HW160663  10.576   7.582   9.303
19552SOL    HW260664  10.612   7.729   9.319
19553SOL     OW60665   5.035   6.233   3.177
19553SOL    HW160666   5.074   6.231   3.089
19553SOL    HW260667   4.982   6.312   3.178
19554SOL     OW60668   8.178   9.039   4.875
19554SOL    HW160669   8.211   9.097   4.943
19554SOL    HW260670   8.172   8.953   4.917
19555SOL     OW60671   0.507  11.082   6.410
19555SOL    HW160672   0.531  11.150   6.346
19555SOL    HW260673   0.475  11.009   6.356
19556SOL     OW60674   1.148   1.322  10.825
19556SOL    HW160675   1.217   1.344  10.762
19556SOL    HW260676   1.184   1.249  10.875
19557SOL     OW60677   9.632   3.509   5.195
19557SOL    HW160678   9.603   3.466   5.114
19557SOL    HW260679   9.675   3.439   5.244
19558SOL     OW60680   8.082   7.325   3.538
19558SOL    HW160681   8.074   7.230   3.528
19558SOL    HW260682   8.065   7.360   3.450
19559SOL     OW60683   4.407   6.069   2.825
19559SOL    HW160684   4.429   6.031   2.910
19559SOL    HW260685   4.459   6.149   2.820
19560SOL     OW60686   5.382   8.969   7.407
19560SOL    HW160687   5.318   8.907   7.371
19560SOL    HW260688   5.424   8.920   7.478
19561SOL     OW60689   9.437  10.110   3.301
19561SOL    HW160690   9.355  10.064   3.282
19561SOL    HW260691   9.431  10.191   3.251
19562SOL     OW60692   6.112   8.055   0.564
19562SOL    HW160693   6.145   8.054   0.474
19562SOL    HW260694   6.018   8.070   0.555
19563SOL     OW60695   2.182   7.327   3.976
19563SOL    HW160696   2.164   7.268   3.903
19563SOL    HW260697   2.229   7.400   3.936
19564SOL     OW60698   1.106   1.921   9.207
19564SOL    HW160699   1.015   1.932   9.235
19564SOL    HW260700   1.152   1.996   9.244
19565SOL     OW60701   5.377   7.355  10.680
19565SOL    HW160702   5.305   7.346  10.618
19565SOL    HW260703   5.335   7.363  10.765
19566SOL     OW60704   4.017   8.863   8.750
19566SOL    HW160705   4.076   8.888   8.679
19566SOL    HW260706   4.023   8.767   8.753
19567SOL     OW60707   4.431   2.288   8.966
19567SOL    HW160708   4.486   2.232   9.021
19567SOL    HW260709   4.366   2.228   8.929
19568SOL     OW60710   7.761   7.192   1.792
19568SOL    HW160711   7.730   7.150   1.711
19568SOL    HW260712   7.702   7.159   1.860
19569SOL     OW60713   3.219   7.472   0.837
19569SOL    HW160714   3.131   7.444   0.813
19569SOL    HW260715   3.269   7.465   0.756
19570SOL     OW60716   9.193   3.428  10.754
19570SOL    HW160717   9.098   3.424  10.744
19570SOL    HW260718   9.216   3.347  10.800
19571SOL     OW60719   2.023   1.254   5.452
19571SOL    HW160720   1.953   1.303   5.410
19571SOL    HW260721   1.994   1.242   5.542
19572SOL     OW60722   8.978   4.055   3.479
19572SOL    HW160723   9.034   4.099   3.415
19572SOL    HW260724   9.008   3.964   3.478
19573SOL     OW60725   1.857   5.391   8.558
19573SOL    HW160726   1.911   5.395   8.637
19573SOL    HW260727   1.828   5.300   8.554
19574SOL     OW60728   0.993   4.536   2.064
19574SOL    HW160729   0.972   4.629   2.056
19574SOL    HW260730   1.024   4.526   2.154
19575SOL     OW60731  10.502   3.912   1.087
19575SOL    HW160732  10.539   3.919   0.999
19575SOL    HW260733  10.410   3.890   1.073
19576SOL     OW60734   2.973   1.017   7.879
19576SOL    HW160735   2.984   1.056   7.965
19576SOL    HW260736   2.940   0.929   7.896
19577SOL     OW60737   4.406   8.027  10.932
19577SOL    HW160738   4.333   7.981  10.973
19577SOL    HW260739   4.365   8.081  10.864
19578SOL     OW60740   5.971   7.618   0.494
19578SOL    HW160741   5.941   7.672   0.566
19578SOL    HW260742   5.893   7.604   0.441
19579SOL     OW60743   9.931   3.976   1.903
19579SOL    HW160744   9.955   3.909   1.967
19579SOL    HW260745   9.930   3.930   1.819
19580SOL     OW60746   4.570   7.690   4.258
19580SOL    HW160747   4.589   7.724   4.345
19580SOL    HW260748   4.512   7.615   4.273
19581SOL     OW60749  11.020   9.993   4.080
19581SOL    HW160750  11.090   9.929   4.068
19581SOL    HW260751  10.989  10.011   3.991
19582SOL     OW60752   6.271   1.812  10.397
19582SOL    HW160753   6.200   1.864  10.433
19582SOL    HW260754   6.293   1.855  10.314
19583SOL     OW60755   3.897   8.497   9.413
19583SOL    HW160756   3.830   8.468   9.351
19583SOL    HW260757   3.944   8.417   9.436
19584SOL     OW60758   7.427   0.477  10.627
19584SOL    HW160759   7.441   0.566  10.596
19584SOL    HW260760   7.332   0.464  10.622
19585SOL     OW60761   4.366   6.687   4.961
19585SOL    HW160762   4.438   6.723   4.909
19585SOL    HW260763   4.333   6.761   5.011
19586SOL     OW60764   2.619   7.810   0.804
19586SOL    HW160765   2.653   7.792   0.716
19586SOL    HW260766   2.550   7.875   0.790
19587SOL     OW60767   5.999   7.316   0.171
19587SOL    HW160768   6.022   7.365   0.092
19587SOL    HW260769   6.046   7.360   0.242
19588SOL     OW60770   1.396   4.363   6.153
19588SOL    HW160771   1.344   4.401   6.223
19588SOL    HW260772   1.444   4.291   6.195
19589SOL     OW60773   9.934   8.966   9.631
19589SOL    HW160774  10.020   8.971   9.672
19589SOL    HW260775   9.873   8.955   9.704
19590SOL     OW60776   4.946  10.859   2.248
19590SOL    HW160777   4.968  10.771   2.278
19590SOL    HW260778   4.937  10.850   2.153
19591SOL     OW60779   4.486   9.409   7.419
19591SOL    HW160780   4.435   9.467   7.476
19591SOL    HW260781   4.502   9.461   7.340
19592SOL     OW60782   9.150   6.720   6.761
19592SOL    HW160783   9.203   6.648   6.795
19592SOL    HW260784   9.067   6.678   6.736
19593SOL     OW60785   0.767   4.655   9.120
19593SOL    HW160786   0.831   4.662   9.190
19593SOL    HW260787   0.813   4.688   9.042
19594SOL     OW60788   6.826  10.392  10.230
19594SOL    HW160789   6.791  10.305  10.249
19594SOL    HW260790   6.888  10.409  10.301
19595SOL     OW60791   4.214   8.293   9.689
19595SOL    HW160792   4.235   8.352   9.617
19595SOL    HW260793   4.273   8.319   9.759
19596SOL     OW60794   3.999   5.482   7.053
19596SOL    HW160795   4.049   5.554   7.090
19596SOL    HW260796   4.019   5.407   7.109
19597SOL     OW60797   4.075   9.954   0.682
19597SOL    HW160798   3.996  10.008   0.677
19597SOL    HW260799   4.143  10.013   0.714
19598SOL     OW60800   2.589   8.424   3.271
19598SOL    HW160801   2.643   8.415   3.192
19598SOL    HW260802   2.590   8.517   3.291
19599SOL     OW60803   5.398   7.203   1.221
19599SOL    HW160804   5.429   7.146   1.150
19599SOL    HW260805   5.346   7.270   1.177
19600SOL     OW60806   5.955   9.880   0.655
19600SOL    HW160807   5.978   9.796   0.695
19600SOL    HW260808   5.976   9.869   0.562
19601SOL     OW60809   3.980   2.369   0.623
19601SOL    HW160810   3.918   2.369   0.550
19601SOL    HW260811   3.942   2.310   0.688
19602SOL     OW60812   7.800   8.348   9.360
19602SOL    HW160813   7.856   8.339   9.282
19602SOL    HW260814   7.725   8.399   9.329
19603SOL     OW60815   0.497   7.295   7.943
19603SOL    HW160816   0.554   7.366   7.973
19603SOL    HW260817   0.557   7.231   7.905
19604SOL     OW60818   1.122   2.671   1.198
19604SOL    HW160819   1.052   2.683   1.134
19604SOL    HW260820   1.109   2.582   1.231
19605SOL     OW60821   0.072   4.635   2.233
19605SOL    HW160822   0.148   4.618   2.177
19605SOL    HW260823   0.012   4.685   2.177
19606SOL     OW60824  10.756   3.337   4.073
19606SOL    HW160825  10.782   3.426   4.097
19606SOL    HW260826  10.810   3.316   3.997
19607SOL     OW60827  10.025   8.551   6.633
19607SOL    HW160828   9.935   8.526   6.655
19607SOL    HW260829  10.071   8.553   6.717
19608SOL     OW60830   6.177   0.534   9.043
19608SOL    HW160831   6.195   0.602   9.108
19608SOL    HW260832   6.185   0.578   8.958
19609SOL     OW60833   4.062   6.977   5.183
19609SOL    HW160834   4.017   6.897   5.156
19609SOL    HW260835   3.992   7.039   5.202
19610SOL     OW60836   5.078   5.800   1.883
19610SOL    HW160837   5.062   5.873   1.823
19610SOL    HW260838   5.102   5.727   1.825
19611SOL     OW60839   6.838   7.312   3.028
19611SOL    HW160840   6.867   7.394   2.988
19611SOL    HW260841   6.800   7.262   2.955
19612SOL     OW60842  10.049   9.446   4.071
19612SOL    HW160843   9.961   9.476   4.092
19612SOL    HW260844  10.092   9.522   4.032
19613SOL     OW60845   8.356   9.795   0.475
19613SOL    HW160846   8.261   9.793   0.487
19613SOL    HW260847   8.391   9.812   0.562
19614SOL     OW60848   0.562  10.255   9.678
19614SOL    HW160849   0.612  10.174   9.667
19614SOL    HW260850   0.609  10.319   9.625
19615SOL     OW60851  10.223   1.767  10.840
19615SOL    HW160852  10.215   1.713  10.761
19615SOL    HW260853  10.269   1.846  10.811
19616SOL     OW60854   3.899   2.726   3.918
19616SOL    HW160855   3.950   2.706   3.839
19616SOL    HW260856   3.808   2.721   3.889
19617SOL     OW60857   3.079   4.286   9.434
19617SOL    HW160858   3.125   4.212   9.394
19617SOL    HW260859   3.029   4.247   9.505
19618SOL     OW60860   7.624   4.886   4.351
19618SOL    HW160861   7.533   4.900   4.325
19618SOL    HW260862   7.657   4.973   4.373
19619SOL     OW60863   2.183   1.199  10.659
19619SOL    HW160864   2.197   1.117  10.611
19619SOL    HW260865   2.112   1.242  10.611
19620SOL     OW60866   5.898   8.466   9.020
19620SOL    HW160867   5.967   8.519   9.060
19620SOL    HW260868   5.858   8.419   9.093
19621SOL     OW60869   3.875   0.187   0.727
19621SOL    HW160870   3.931   0.252   0.769
19621SOL    HW260871   3.887   0.108   0.779
19622SOL     OW60872   5.543   7.671  10.081
19622SOL    HW160873   5.469   7.710  10.034
19622SOL    HW260874   5.592   7.746  10.115
19623SOL     OW60875   7.191   5.723   0.430
19623SOL    HW160876   7.263   5.667   0.458
19623SOL    HW260877   7.112   5.677   0.459
19624SOL     OW60878   4.588   7.685   3.306
19624SOL    HW160879   4.657   7.648   3.361
19624SOL    HW260880   4.544   7.608   3.269
19625SOL     OW60881   8.912   6.457   7.766
19625SOL    HW160882   8.877   6.530   7.816
19625SOL    HW260883   8.837   6.400   7.749
19626SOL     OW60884   7.869   8.989   0.142
19626SOL    HW160885   7.804   9.026   0.202
19626SOL    HW260886   7.869   8.895   0.163
19627SOL     OW60887   9.095   7.563   6.845
19627SOL    HW160888   9.074   7.471   6.862
19627SOL    HW260889   9.189   7.563   6.829
19628SOL     OW60890   2.391   3.537   2.025
19628SOL    HW160891   2.403   3.565   1.934
19628SOL    HW260892   2.380   3.618   2.074
19629SOL     OW60893   8.105   6.927   0.014
19629SOL    HW160894   8.132   6.835   0.010
19629SOL    HW260895   8.107   6.948   0.108
19630SOL     OW60896   6.781   0.916  10.388
19630SOL    HW160897   6.750   0.875  10.469
19630SOL    HW260898   6.843   0.852  10.352
19631SOL     OW60899   4.747   6.932   0.363
19631SOL    HW160900   4.843   6.934   0.357
19631SOL    HW260901   4.723   7.017   0.400
19632SOL     OW60902   9.440   2.116   2.514
19632SOL    HW160903   9.416   2.205   2.489
19632SOL    HW260904   9.391   2.060   2.453
19633SOL     OW60905   4.609   3.521   8.965
19633SOL    HW160906   4.605   3.503   9.059
19633SOL    HW260907   4.544   3.590   8.951
19634SOL     OW60908   4.523   7.675   2.094
19634SOL    HW160909   4.574   7.689   2.014
19634SOL    HW260910   4.585   7.693   2.165
19635SOL     OW60911   8.592   9.741   1.492
19635SOL    HW160912   8.601   9.652   1.457
19635SOL    HW260913   8.498   9.758   1.490
19636SOL     OW60914   8.992   4.791  10.730
19636SOL    HW160915   9.060   4.858  10.733
19636SOL    HW260916   8.958   4.795  10.640
19637SOL     OW60917   6.989   6.220   8.269
19637SOL    HW160918   7.019   6.169   8.344
19637SOL    HW260919   6.911   6.266   8.300
19638SOL     OW60920   8.614   4.450   8.231
19638SOL    HW160921   8.648   4.389   8.296
19638SOL    HW260922   8.542   4.495   8.275
19639SOL     OW60923   2.029   2.258   2.452
19639SOL    HW160924   2.007   2.270   2.544
19639SOL    HW260925   2.040   2.163   2.442
19640SOL     OW60926   3.153   3.586   9.031
19640SOL    HW160927   3.164   3.665   9.083
19640SOL    HW260928   3.154   3.616   8.940
19641SOL     OW60929   9.907   6.897  10.258
19641SOL    HW160930   9.869   6.811  10.240
19641SOL    HW260931   9.990   6.878  10.301
19642SOL     OW60932   3.078   8.949   3.280
19642SOL    HW160933   3.133   8.887   3.231
19642SOL    HW260934   3.037   8.895   3.348
19643SOL     OW60935   6.563   8.016   6.236
19643SOL    HW160936   6.534   8.104   6.213
19643SOL    HW260937   6.588   7.976   6.152
19644SOL     OW60938   7.613   7.855   4.861
19644SOL    HW160939   7.532   7.844   4.811
19644SOL    HW260940   7.616   7.948   4.881
19645SOL     OW60941   8.897   5.864   9.667
19645SOL    HW160942   8.828   5.821   9.718
19645SOL    HW260943   8.953   5.792   9.638
19646SOL     OW60944   4.903   4.261   4.553
19646SOL    HW160945   4.973   4.196   4.564
19646SOL    HW260946   4.938   4.324   4.490
19647SOL     OW60947   7.851   8.826   1.204
19647SOL    HW160948   7.769   8.776   1.205
19647SOL    HW260949   7.918   8.760   1.185
19648SOL     OW60950   7.399   7.312   1.033
19648SOL    HW160951   7.414   7.399   1.069
19648SOL    HW260952   7.327   7.276   1.085
19649SOL     OW60953   1.646  10.110   8.781
19649SOL    HW160954   1.721  10.121   8.839
19649SOL    HW260955   1.572  10.148   8.828
19650SOL     OW60956   2.444   6.867   5.456
19650SOL    HW160957   2.516   6.804   5.445
19650SOL    HW260958   2.365   6.818   5.433
19651SOL     OW60959   0.712   7.710   1.455
19651SOL    HW160960   0.762   7.676   1.380
19651SOL    HW260961   0.641   7.647   1.467
19652SOL     OW60962   3.029   6.413  10.143
19652SOL    HW160963   2.948   6.363  10.131
19652SOL    HW260964   3.099   6.347  10.136
19653SOL     OW60965   3.669   7.767   3.587
19653SOL    HW160966   3.740   7.722   3.540
19653SOL    HW260967   3.696   7.765   3.679
19654SOL     OW60968   2.694   7.780  10.458
19654SOL    HW160969   2.666   7.692  10.431
19654SOL    HW260970   2.640   7.839  10.406
19655SOL     OW60971   1.125  10.363   0.674
19655SOL    HW160972   1.186  10.313   0.729
19655SOL    HW260973   1.178  10.391   0.599
19656SOL     OW60974   1.933   4.870   4.124
19656SOL    HW160975   1.862   4.927   4.095
19656SOL    HW260976   1.895   4.819   4.195
19657SOL     OW60977   6.512   0.595   8.632
19657SOL    HW160978   6.475   0.662   8.689
19657SOL    HW260979   6.514   0.635   8.545
19658SOL     OW60980   7.185   4.730  10.804
19658SOL    HW160981   7.183   4.715  10.709
19658SOL    HW260982   7.191   4.825  10.813
19659SOL     OW60983   8.823   8.479   4.722
19659SOL    HW160984   8.793   8.470   4.631
19659SOL    HW260985   8.919   8.481   4.715
19660SOL     OW60986   5.531   0.685   6.364
19660SOL    HW160987   5.479   0.604   6.362
19660SOL    HW260988   5.499   0.735   6.289
19661SOL     OW60989   2.867   5.725   3.917
19661SOL    HW160990   2.918   5.787   3.865
19661SOL    HW260991   2.782   5.767   3.929
19662SOL     OW60992   5.334   0.175   3.515
19662SOL    HW160993   5.379   0.253   3.484
19662SOL    HW260994   5.377   0.103   3.468
19663SOL     OW60995   6.186   6.354   0.123
19663SOL    HW160996   6.213   6.383   0.210
19663SOL    HW260997   6.210   6.426   0.065
19664SOL     OW60998   0.948   5.210   4.649
19664SOL    HW160999   1.043   5.198   4.653
19664SOL    HW261000   0.923   5.169   4.566
19665SOL     OW61001  10.203   1.857   5.542
19665SOL    HW161002  10.261   1.798   5.591
19665SOL    HW261003  10.247   1.869   5.458
19666SOL     OW61004   2.123   8.260   1.327
19666SOL    HW161005   2.203   8.233   1.372
19666SOL    HW261006   2.134   8.227   1.237
19667SOL     OW61007   7.882   0.873   9.843
19667SOL    HW161008   7.880   0.815   9.919
19667SOL    HW261009   7.956   0.932   9.859
19668SOL     OW61010   4.431   2.502   2.102
19668SOL    HW161011   4.361   2.466   2.047
19668SOL    HW261012   4.396   2.585   2.134
19669SOL     OW61013   9.558   1.641  10.013
19669SOL    HW161014   9.618   1.689   9.955
19669SOL    HW261015   9.611   1.619  10.089
19670SOL     OW61016   3.983   8.219   2.707
19670SOL    HW161017   3.982   8.225   2.802
19670SOL    HW261018   3.971   8.125   2.689
19671SOL     OW61019   0.997   4.544   2.357
19671SOL    HW161020   0.967   4.627   2.393
19671SOL    HW261021   0.918   4.491   2.351
19672SOL     OW61022   5.830   8.659   8.293
19672SOL    HW161023   5.766   8.699   8.233
19672SOL    HW261024   5.782   8.589   8.336
19673SOL     OW61025   6.013   9.064  10.214
19673SOL    HW161026   6.060   9.027  10.289
19673SOL    HW261027   6.059   9.028  10.138
19674SOL     OW61028   2.089   8.687   8.930
19674SOL    HW161029   2.180   8.656   8.933
19674SOL    HW261030   2.073   8.706   8.837
19675SOL     OW61031   6.473   6.138   5.587
19675SOL    HW161032   6.417   6.215   5.588
19675SOL    HW261033   6.537   6.154   5.656
19676SOL     OW61034   2.250   7.573   2.913
19676SOL    HW161035   2.189   7.631   2.868
19676SOL    HW261036   2.264   7.500   2.851
19677SOL     OW61037   9.806   4.701   0.867
19677SOL    HW161038   9.716   4.668   0.866
19677SOL    HW261039   9.823   4.727   0.776
19678SOL     OW61040   2.219   5.644   7.170
19678SOL    HW161041   2.306   5.662   7.133
19678SOL    HW261042   2.232   5.646   7.264
19679SOL     OW61043   4.146   5.348   2.131
19679SOL    HW161044   4.128   5.262   2.170
19679SOL    HW261045   4.086   5.353   2.056
19680SOL     OW61046   6.752   7.287   1.691
19680SOL    HW161047   6.687   7.270   1.759
19680SOL    HW261048   6.772   7.380   1.700
19681SOL     OW61049  10.483   6.297   2.582
19681SOL    HW161050  10.487   6.211   2.539
19681SOL    HW261051  10.434   6.281   2.662
19682SOL     OW61052   4.693   7.895   3.159
19682SOL    HW161053   4.788   7.901   3.172
19682SOL    HW261054   4.663   7.835   3.227
19683SOL     OW61055   4.540   0.484   0.056
19683SOL    HW161056   4.484   0.456   0.128
19683SOL    HW261057   4.627   0.493   0.096
19684SOL     OW61058   5.172   7.992   5.304
19684SOL    HW161059   5.110   8.056   5.269
19684SOL    HW261060   5.237   8.044   5.351
19685SOL     OW61061   0.418   4.731   5.195
19685SOL    HW161062   0.418   4.790   5.270
19685SOL    HW261063   0.414   4.789   5.119
19686SOL     OW61064   3.865   5.784   4.619
19686SOL    HW161065   3.900   5.706   4.662
19686SOL    HW261066   3.772   5.765   4.606
19687SOL     OW61067   2.710   4.741   0.072
19687SOL    HW161068   2.678   4.813   0.018
19687SOL    HW261069   2.719   4.779   0.160
19688SOL     OW61070   4.438   9.960   2.038
19688SOL    HW161071   4.376   9.891   2.013
19688SOL    HW261072   4.511   9.913   2.078
19689SOL     OW61073   7.379   9.747   5.856
19689SOL    HW161074   7.474   9.757   5.854
19689SOL    HW261075   7.346   9.836   5.857
19690SOL     OW61076   7.427   8.862   3.000
19690SOL    HW161077   7.351   8.888   2.948
19690SOL    HW261078   7.395   8.791   3.056
19691SOL     OW61079   1.294   7.476   2.806
19691SOL    HW161080   1.223   7.460   2.868
19691SOL    HW261081   1.261   7.545   2.749
19692SOL     OW61082   3.122  10.050   2.386
19692SOL    HW161083   3.199  10.016   2.432
19692SOL    HW261084   3.049  10.033   2.445
19693SOL     OW61085   4.356   1.492   5.158
19693SOL    HW161086   4.344   1.459   5.247
19693SOL    HW261087   4.450   1.508   5.151
19694SOL     OW61088   5.703   7.894   3.295
19694SOL    HW161089   5.786   7.891   3.342
19694SOL    HW261090   5.724   7.862   3.207
19695SOL     OW61091  10.663   6.711   0.761
19695SOL    HW161092  10.725   6.647   0.797
19695SOL    HW261093  10.604   6.731   0.834
19696SOL     OW61094   3.893   3.892  11.080
19696SOL    HW161095   3.834   3.845  11.139
19696SOL    HW261096   3.843   3.967  11.050
19697SOL     OW61097   9.865   1.332  10.900
19697SOL    HW161098   9.843   1.385  10.823
19697SOL    HW261099   9.847   1.389  10.975
19698SOL     OW61100   4.458   4.250  10.266
19698SOL    HW161101   4.541   4.208  10.287
19698SOL    HW261102   4.435   4.216  10.179
19699SOL     OW61103   6.050   3.913   6.315
19699SOL    HW161104   5.984   3.845   6.327
19699SOL    HW261105   6.104   3.908   6.394
19700SOL     OW61106   9.785   5.583   2.193
19700SOL    HW161107   9.759   5.663   2.237
19700SOL    HW261108   9.805   5.521   2.263
19701SOL     OW61109   3.987   1.468   3.582
19701SOL    HW161110   3.981   1.424   3.667
19701SOL    HW261111   4.077   1.452   3.553
19702SOL     OW61112   9.302   5.421   1.320
19702SOL    HW161113   9.269   5.502   1.281
19702SOL    HW261114   9.235   5.355   1.300
19703SOL     OW61115   1.232  10.761   2.719
19703SOL    HW161116   1.220  10.856   2.721
19703SOL    HW261117   1.287  10.745   2.642
19704SOL     OW61118   9.339   6.765   4.240
19704SOL    HW161119   9.369   6.710   4.312
19704SOL    HW261120   9.268   6.715   4.200
19705SOL     OW61121   8.179   4.737   5.609
19705SOL    HW161122   8.193   4.720   5.702
19705SOL    HW261123   8.217   4.661   5.565
19706SOL     OW61124   6.142   6.298   3.610
19706SOL    HW161125   6.224   6.322   3.653
19706SOL    HW261126   6.106   6.227   3.664
19707SOL     OW61127   5.407   8.493   9.131
19707SOL    HW161128   5.392   8.525   9.220
19707SOL    HW261129   5.387   8.399   9.135
19708SOL     OW61130   3.781   2.259   9.845
19708SOL    HW161131   3.808   2.302   9.764
19708SOL    HW261132   3.700   2.214   9.822
19709SOL     OW61133   7.420   5.382   8.544
19709SOL    HW161134   7.352   5.377   8.611
19709SOL    HW261135   7.425   5.475   8.521
19710SOL     OW61136   4.290   7.316   1.655
19710SOL    HW161137   4.299   7.243   1.716
19710SOL    HW261138   4.196   7.332   1.651
19711SOL     OW61139   5.349  10.889  11.019
19711SOL    HW161140   5.367  10.973  10.977
19711SOL    HW261141   5.254  10.881  11.017
19712SOL     OW61142   9.835   8.427   1.006
19712SOL    HW161143   9.916   8.458   1.046
19712SOL    HW261144   9.793   8.374   1.073
19713SOL     OW61145   4.393   9.498   2.809
19713SOL    HW161146   4.471   9.547   2.834
19713SOL    HW261147   4.424   9.435   2.744
19714SOL     OW61148   3.948   1.174   4.842
19714SOL    HW161149   4.012   1.186   4.771
19714SOL    HW261150   3.968   1.244   4.904
19715SOL     OW61151   0.918   1.181   8.288
19715SOL    HW161152   1.012   1.166   8.280
19715SOL    HW261153   0.889   1.116   8.352
19716SOL     OW61154   0.694   6.235   3.757
19716SOL    HW161155   0.755   6.161   3.760
19716SOL    HW261156   0.613   6.201   3.795
19717SOL     OW61157   6.115   5.367   7.560
19717SOL    HW161158   6.086   5.448   7.602
19717SOL    HW261159   6.169   5.323   7.626
19718SOL     OW61160   1.813   3.304   9.646
19718SOL    HW161161   1.759   3.255   9.708
19718SOL    HW261162   1.774   3.391   9.644
19719SOL     OW61163   9.871   7.581  10.622
19719SOL    HW161164   9.780   7.551  10.619
19719SOL    HW261165   9.923   7.500  10.626
19720SOL     OW61166   7.111   6.085   2.163
19720SOL    HW161167   7.024   6.078   2.124
19720SOL    HW261168   7.099   6.142   2.238
19721SOL     OW61169   3.960   9.786   1.178
19721SOL    HW161170   3.958   9.769   1.084
19721SOL    HW261171   3.914   9.869   1.188
19722SOL     OW61172   0.654   0.627   9.753
19722SOL    HW161173   0.723   0.581   9.704
19722SOL    HW261174   0.597   0.557   9.786
19723SOL     OW61175   2.534   5.524   2.546
19723SOL    HW161176   2.475   5.452   2.570
19723SOL    HW261177   2.486   5.603   2.569
19724SOL     OW61178   6.891  10.443   2.375
19724SOL    HW161179   6.933  10.357   2.370
19724SOL    HW261180   6.805  10.425   2.414
19725SOL     OW61181   8.089   7.272   2.898
19725SOL    HW161182   8.022   7.204   2.885
19725SOL    HW261183   8.063   7.343   2.839
19726SOL     OW61184   0.435   6.342   1.910
19726SOL    HW161185   0.423   6.324   2.003
19726SOL    HW261186   0.515   6.395   1.905
19727SOL     OW61187   3.105   8.275   0.082
19727SOL    HW161188   3.174   8.340   0.069
19727SOL    HW261189   3.147   8.204   0.131
19728SOL     OW61190   6.778   8.605   3.937
19728SOL    HW161191   6.814   8.518   3.917
19728SOL    HW261192   6.714   8.589   4.006
19729SOL     OW61193   3.107   4.195   8.035
19729SOL    HW161194   3.025   4.242   8.050
19729SOL    HW261195   3.163   4.257   7.989
19730SOL     OW61196   9.634   7.979  10.027
19730SOL    HW161197   9.604   8.025   9.948
19730SOL    HW261198   9.717   7.939  10.001
19731SOL     OW61199  10.727   6.172  10.748
19731SOL    HW161200  10.770   6.087  10.733
19731SOL    HW261201  10.751   6.224  10.671
19732SOL     OW61202   8.380   3.771  10.507
19732SOL    HW161203   8.293   3.738  10.528
19732SOL    HW261204   8.368   3.821  10.426
19733SOL     OW61205   8.613   9.592   5.613
19733SOL    HW161206   8.679   9.654   5.581
19733SOL    HW261207   8.619   9.597   5.708
19734SOL     OW61208   8.026   5.694   2.880
19734SOL    HW161209   8.055   5.665   2.966
19734SOL    HW261210   8.035   5.789   2.882
19735SOL     OW61211   1.978   5.846   3.352
19735SOL    HW161212   2.034   5.772   3.327
19735SOL    HW261213   1.902   5.806   3.393
19736SOL     OW61214   4.632   0.459   2.404
19736SOL    HW161215   4.596   0.463   2.315
19736SOL    HW261216   4.654   0.549   2.425
19737SOL     OW61217   2.734   2.680  10.340
19737SOL    HW161218   2.674   2.646  10.406
19737SOL    HW261219   2.727   2.775  10.348
19738SOL     OW61220   4.159   3.790   0.118
19738SOL    HW161221   4.086   3.800   0.058
19738SOL    HW261222   4.131   3.835   0.198
19739SOL     OW61223   8.594   0.020   7.544
19739SOL    HW161224   8.507  -0.016   7.563
19739SOL    HW261225   8.605   0.090   7.607
19740SOL     OW61226   3.663   5.522  10.002
19740SOL    HW161227   3.682   5.451   9.940
19740SOL    HW261228   3.739   5.580   9.996
19741SOL     OW61229   4.375   4.999   1.312
19741SOL    HW161230   4.404   4.980   1.401
19741SOL    HW261231   4.282   4.976   1.311
19742SOL     OW61232   7.003   7.433   7.753
19742SOL    HW161233   7.019   7.340   7.737
19742SOL    HW261234   7.088   7.467   7.779
19743SOL     OW61235   7.411   2.101   2.038
19743SOL    HW161236   7.452   2.017   2.058
19743SOL    HW261237   7.402   2.144   2.123
19744SOL     OW61238   2.074   5.356   3.953
19744SOL    HW161239   2.133   5.281   3.942
19744SOL    HW261240   2.010   5.326   4.017
19745SOL     OW61241   3.463   3.059   6.816
19745SOL    HW161242   3.419   3.132   6.859
19745SOL    HW261243   3.456   2.986   6.878
19746SOL     OW61244   9.520   1.245   6.203
19746SOL    HW161245   9.458   1.291   6.259
19746SOL    HW261246   9.540   1.307   6.133
19747SOL     OW61247   5.320   6.997   7.295
19747SOL    HW161248   5.233   7.032   7.313
19747SOL    HW261249   5.311   6.951   7.211
19748SOL     OW61250   4.727   1.325   0.696
19748SOL    HW161251   4.822   1.337   0.691
19748SOL    HW261252   4.691   1.394   0.640
19749SOL     OW61253   3.473   2.227   4.843
19749SOL    HW161254   3.539   2.178   4.893
19749SOL    HW261255   3.492   2.206   4.751
19750SOL     OW61256   3.389   7.128   6.557
19750SOL    HW161257   3.349   7.044   6.533
19750SOL    HW261258   3.467   7.103   6.607
19751SOL     OW61259   4.894   0.987  10.826
19751SOL    HW161260   4.858   1.032  10.749
19751SOL    HW261261   4.989   0.987  10.811
19752SOL     OW61262   2.755   3.524   3.098
19752SOL    HW161263   2.805   3.511   3.179
19752SOL    HW261264   2.667   3.492   3.118
19753SOL     OW61265   5.951   6.772   4.164
19753SOL    HW161266   6.006   6.834   4.115
19753SOL    HW261267   5.868   6.770   4.116
19754SOL     OW61268   1.269   6.610   2.018
19754SOL    HW161269   1.272   6.702   1.993
19754SOL    HW261270   1.302   6.608   2.108
19755SOL     OW61271   3.523  10.308   2.487
19755SOL    HW161272   3.599  10.262   2.452
19755SOL    HW261273   3.549  10.335   2.575
19756SOL     OW61274   3.510   1.100   9.242
19756SOL    HW161275   3.594   1.125   9.204
19756SOL    HW261276   3.515   1.005   9.251
19757SOL     OW61277   1.486   4.892   3.768
19757SOL    HW161278   1.492   4.978   3.810
19757SOL    HW261279   1.567   4.885   3.716
19758SOL     OW61280   9.369   3.857   2.814
19758SOL    HW161281   9.301   3.885   2.875
19758SOL    HW261282   9.346   3.900   2.731
19759SOL     OW61283   7.674   7.842   5.486
19759SOL    HW161284   7.738   7.775   5.461
19759SOL    HW261285   7.592   7.793   5.496
19760SOL     OW61286   2.991   1.013  10.605
19760SOL    HW161287   3.035   1.086  10.561
19760SOL    HW261288   2.963   1.049  10.689
19761SOL     OW61289   4.894   5.283   5.177
19761SOL    HW161290   4.853   5.364   5.206
19761SOL    HW261291   4.919   5.299   5.086
19762SOL     OW61292   4.063   2.270   6.422
19762SOL    HW161293   4.157   2.270   6.441
19762SOL    HW261294   4.032   2.355   6.452
19763SOL     OW61295   4.085   9.202   5.500
19763SOL    HW161296   4.119   9.271   5.443
19763SOL    HW261297   4.003   9.175   5.458
19764SOL     OW61298   5.984   7.687   3.369
19764SOL    HW161299   6.073   7.702   3.336
19764SOL    HW261300   5.929   7.687   3.290
19765SOL     OW61301   8.676   3.424   0.680
19765SOL    HW161302   8.657   3.357   0.614
19765SOL    HW261303   8.758   3.395   0.720
19766SOL     OW61304   3.546   3.558   2.921
19766SOL    HW161305   3.570   3.497   2.991
19766SOL    HW261306   3.451   3.559   2.922
19767SOL     OW61307   5.910   4.510   9.369
19767SOL    HW161308   5.893   4.568   9.295
19767SOL    HW261309   5.870   4.554   9.444
19768SOL     OW61310   5.670   0.795   7.362
19768SOL    HW161311   5.710   0.731   7.303
19768SOL    HW261312   5.706   0.879   7.334
19769SOL     OW61313   7.427   7.622   2.742
19769SOL    HW161314   7.334   7.645   2.736
19769SOL    HW261315   7.433   7.535   2.701
19770SOL     OW61316   5.627  10.133   2.968
19770SOL    HW161317   5.660  10.198   2.906
19770SOL    HW261318   5.704  10.080   2.991
19771SOL     OW61319   5.591   7.546   6.705
19771SOL    HW161320   5.509   7.592   6.689
19771SOL    HW261321   5.581   7.462   6.660
19772SOL     OW61322   5.615   9.943   4.085
19772SOL    HW161323   5.598   9.877   4.017
19772SOL    HW261324   5.581  10.024   4.048
19773SOL     OW61325   6.568   6.206   0.452
19773SOL    HW161326   6.558   6.132   0.392
19773SOL    HW261327   6.656   6.240   0.433
19774SOL     OW61328   5.148   6.335   4.230
19774SOL    HW161329   5.074   6.363   4.283
19774SOL    HW261330   5.209   6.297   4.293
19775SOL     OW61331   4.517   4.994   5.361
19775SOL    HW161332   4.560   5.079   5.352
19775SOL    HW261333   4.586   4.930   5.340
19776SOL     OW61334   5.711   9.653   5.191
19776SOL    HW161335   5.623   9.617   5.183
19776SOL    HW261336   5.719   9.678   5.283
19777SOL     OW61337   4.446   9.549  10.458
19777SOL    HW161338   4.461   9.594  10.541
19777SOL    HW261339   4.356   9.571  10.434
19778SOL     OW61340  10.091   9.587   3.225
19778SOL    HW161341  10.103   9.676   3.258
19778SOL    HW261342  10.001   9.565   3.247
19779SOL     OW61343   4.018   8.689   1.302
19779SOL    HW161344   4.001   8.781   1.319
19779SOL    HW261345   4.048   8.654   1.385
19780SOL     OW61346   5.006   9.844   1.834
19780SOL    HW161347   4.943   9.773   1.820
19780SOL    HW261348   4.963   9.921   1.797
19781SOL     OW61349   7.765   7.482   8.829
19781SOL    HW161350   7.707   7.478   8.753
19781SOL    HW261351   7.831   7.547   8.805
19782SOL     OW61352   8.772  10.828   0.534
19782SOL    HW161353   8.715  10.774   0.480
19782SOL    HW261354   8.774  10.784   0.618
19783SOL     OW61355   8.798   0.356   3.777
19783SOL    HW161356   8.729   0.413   3.809
19783SOL    HW261357   8.877   0.384   3.823
19784SOL     OW61358   7.905   9.461   0.295
19784SOL    HW161359   7.950   9.380   0.269
19784SOL    HW261360   7.813   9.445   0.274
19785SOL     OW61361   7.627   7.591   2.894
19785SOL    HW161362   7.539   7.606   2.860
19785SOL    HW261363   7.626   7.500   2.924
19786SOL     OW61364   4.330   2.185   4.135
19786SOL    HW161365   4.374   2.160   4.054
19786SOL    HW261366   4.398   2.181   4.202
19787SOL     OW61367   1.867   0.780   9.530
19787SOL    HW161368   1.892   0.819   9.446
19787SOL    HW261369   1.800   0.715   9.507
19788SOL     OW61370   2.979   5.522   9.140
19788SOL    HW161371   3.049   5.587   9.149
19788SOL    HW261372   3.003   5.452   9.201
19789SOL     OW61373   8.895   9.433   4.696
19789SOL    HW161374   8.958   9.368   4.664
19789SOL    HW261375   8.945   9.514   4.700
19790SOL     OW61376   7.914   6.747   0.920
19790SOL    HW161377   7.902   6.806   0.845
19790SOL    HW261378   7.972   6.794   0.979
19791SOL     OW61379   3.980   8.852   3.554
19791SOL    HW161380   4.017   8.925   3.504
19791SOL    HW261381   4.049   8.785   3.552
19792SOL     OW61382   2.271   6.206   1.592
19792SOL    HW161383   2.223   6.282   1.624
19792SOL    HW261384   2.285   6.152   1.670
19793SOL     OW61385   9.462   5.875   8.768
19793SOL    HW161386   9.513   5.829   8.835
19793SOL    HW261387   9.517   5.949   8.744
19794SOL     OW61388   4.409   0.323   6.878
19794SOL    HW161389   4.413   0.351   6.969
19794SOL    HW261390   4.433   0.400   6.827
19795SOL     OW61391   6.460   3.954   4.094
19795SOL    HW161392   6.473   3.985   4.004
19795SOL    HW261393   6.542   3.976   4.139
19796SOL     OW61394  10.267   5.043   2.604
19796SOL    HW161395  10.304   4.960   2.634
19796SOL    HW261396  10.288   5.046   2.510
19797SOL     OW61397   1.417   9.919  10.464
19797SOL    HW161398   1.425   9.926  10.369
19797SOL    HW261399   1.426   9.825  10.482
19798SOL     OW61400   9.497   4.751   5.603
19798SOL    HW161401   9.577   4.713   5.639
19798SOL    HW261402   9.427   4.693   5.634
19799SOL     OW61403   9.332   7.665   0.555
19799SOL    HW161404   9.330   7.582   0.507
19799SOL    HW261405   9.386   7.647   0.632
19800SOL     OW61406   5.357   7.079   2.725
19800SOL    HW161407   5.395   7.061   2.639
19800SOL    HW261408   5.320   6.995   2.753
19801SOL     OW61409   7.577  11.023   0.448
19801SOL    HW161410   7.574  10.989   0.537
19801SOL    HW261411   7.666  11.004   0.418
19802SOL     OW61412   2.524  11.087   5.462
19802SOL    HW161413   2.554  10.996   5.466
19802SOL    HW261414   2.506  11.111   5.553
19803SOL     OW61415   3.359   5.636   4.345
19803SOL    HW161416   3.407   5.623   4.263
19803SOL    HW261417   3.307   5.556   4.354
19804SOL     OW61418  10.475   0.446   9.680
19804SOL    HW161419  10.398   0.422   9.732
19804SOL    HW261420  10.468   0.541   9.669
19805SOL     OW61421   8.227   3.325   7.559
19805SOL    HW161422   8.192   3.413   7.573
19805SOL    HW261423   8.294   3.315   7.626
19806SOL     OW61424  10.942   9.724   2.435
19806SOL    HW161425  11.014   9.777   2.469
19806SOL    HW261426  10.864   9.776   2.452
19807SOL     OW61427   8.457   8.058   1.297
19807SOL    HW161428   8.374   8.028   1.334
19807SOL    HW261429   8.445   8.049   1.202
19808SOL     OW61430   4.471   2.035   7.559
19808SOL    HW161431   4.565   2.029   7.542
19808SOL    HW261432   4.432   2.045   7.472
19809SOL     OW61433   7.250  11.021   5.999
19809SOL    HW161434   7.328  10.968   6.016
19809SOL    HW261435   7.193  10.964   5.948
19810SOL     OW61436   8.554   5.904   5.747
19810SOL    HW161437   8.513   5.817   5.753
19810SOL    HW261438   8.511   5.955   5.815
19811SOL     OW61439   6.043   8.405   4.677
19811SOL    HW161440   6.026   8.314   4.702
19811SOL    HW261441   6.121   8.399   4.621
19812SOL     OW61442  11.094   1.885   0.942
19812SOL    HW161443  11.062   1.919   1.025
19812SOL    HW261444  11.042   1.806   0.927
19813SOL     OW61445   9.186   8.892   9.311
19813SOL    HW161446   9.179   8.861   9.220
19813SOL    HW261447   9.249   8.833   9.352
19814SOL     OW61448   6.112   8.379   5.405
19814SOL    HW161449   6.159   8.352   5.484
19814SOL    HW261450   6.020   8.373   5.428
19815SOL     OW61451   6.184   9.277   3.725
19815SOL    HW161452   6.101   9.323   3.711
19815SOL    HW261453   6.177   9.240   3.813
19816SOL     OW61454   2.830   2.658   4.660
19816SOL    HW161455   2.802   2.749   4.666
19816SOL    HW261456   2.918   2.662   4.623
19817SOL     OW61457   1.245   0.975   0.458
19817SOL    HW161458   1.249   0.957   0.552
19817SOL    HW261459   1.152   0.969   0.436
19818SOL     OW61460   8.739   2.153   2.831
19818SOL    HW161461   8.668   2.142   2.767
19818SOL    HW261462   8.716   2.094   2.903
19819SOL     OW61463   4.142   9.875   7.805
19819SOL    HW161464   4.138   9.891   7.899
19819SOL    HW261465   4.231   9.901   7.780
19820SOL     OW61466   3.601   7.640   4.737
19820SOL    HW161467   3.527   7.672   4.789
19820SOL    HW261468   3.647   7.579   4.795
19821SOL     OW61469   2.509   1.369   7.300
19821SOL    HW161470   2.469   1.352   7.385
19821SOL    HW261471   2.461   1.312   7.239
19822SOL     OW61472   5.687   7.193   6.658
19822SOL    HW161473   5.603   7.157   6.631
19822SOL    HW261474   5.736   7.117   6.690
19823SOL     OW61475   8.728   3.780   7.922
19823SOL    HW161476   8.785   3.850   7.890
19823SOL    HW261477   8.663   3.768   7.852
19824SOL     OW61478   5.980   6.545   7.935
19824SOL    HW161479   6.062   6.573   7.893
19824SOL    HW261480   5.951   6.621   7.985
19825SOL     OW61481   9.981   0.706   1.331
19825SOL    HW161482  10.035   0.776   1.367
19825SOL    HW261483  10.044   0.637   1.307
19826SOL     OW61484   2.603   8.481   5.474
19826SOL    HW161485   2.667   8.479   5.403
19826SOL    HW261486   2.575   8.390   5.483
19827SOL     OW61487  10.210   7.354  10.406
19827SOL    HW161488  10.212   7.302  10.325
19827SOL    HW261489  10.167   7.435  10.380
19828SOL     OW61490   5.635  10.922   5.577
19828SOL    HW161491   5.709  10.983   5.580
19828SOL    HW261492   5.673  10.840   5.545
19829SOL     OW61493   3.098   1.935   5.303
19829SOL    HW161494   3.007   1.962   5.311
19829SOL    HW261495   3.147   2.002   5.351
19830SOL     OW61496   5.160   7.318   2.854
19830SOL    HW161497   5.207   7.238   2.880
19830SOL    HW261498   5.076   7.286   2.822
19831SOL     OW61499  10.259   1.153   0.472
19831SOL    HW161500  10.281   1.155   0.379
19831SOL    HW261501  10.186   1.091   0.478
19832SOL     OW61502   7.558   9.345   3.410
19832SOL    HW161503   7.621   9.348   3.482
19832SOL    HW261504   7.554   9.252   3.386
19833SOL     OW61505   3.811  11.050   8.646
19833SOL    HW161506   3.820  10.956   8.663
19833SOL    HW261507   3.717  11.064   8.636
19834SOL     OW61508   0.424  10.437  10.280
19834SOL    HW161509   0.399  10.473  10.365
19834SOL    HW261510   0.341  10.428  10.233
19835SOL     OW61511   7.920   7.488   6.462
19835SOL    HW161512   7.883   7.418   6.408
19835SOL    HW261513   8.010   7.497   6.429
19836SOL     OW61514   1.878   8.492   2.072
19836SOL    HW161515   1.910   8.480   1.982
19836SOL    HW261516   1.942   8.447   2.127
19837SOL     OW61517   5.349   5.024   0.731
19837SOL    HW161518   5.390   5.086   0.671
19837SOL    HW261519   5.334   5.074   0.811
19838SOL     OW61520   5.930   8.490  10.079
19838SOL    HW161521   5.968   8.404  10.060
19838SOL    HW261522   5.891   8.480  10.166
19839SOL     OW61523   4.660   6.853   8.701
19839SOL    HW161524   4.593   6.785   8.694
19839SOL    HW261525   4.741   6.805   8.722
19840SOL     OW61526   3.526   5.246   4.399
19840SOL    HW161527   3.523   5.195   4.480
19840SOL    HW261528   3.437   5.280   4.388
19841SOL     OW61529   3.797   4.244   7.764
19841SOL    HW161530   3.868   4.242   7.828
19841SOL    HW261531   3.737   4.175   7.792
19842SOL     OW61532   4.251   8.572   2.204
19842SOL    HW161533   4.308   8.544   2.275
19842SOL    HW261534   4.311   8.599   2.134
19843SOL     OW61535   0.283   6.926   5.480
19843SOL    HW161536   0.273   6.868   5.404
19843SOL    HW261537   0.313   7.009   5.443
19844SOL     OW61538   2.294   9.007   5.677
19844SOL    HW161539   2.228   8.972   5.617
19844SOL    HW261540   2.350   8.932   5.697
19845SOL     OW61541   9.346   8.561   0.696
19845SOL    HW161542   9.351   8.466   0.709
19845SOL    HW261543   9.255   8.583   0.713
19846SOL     OW61544   2.242   2.951   0.327
19846SOL    HW161545   2.289   2.922   0.248
19846SOL    HW261546   2.244   3.046   0.323
19847SOL     OW61547   9.401   8.133   3.435
19847SOL    HW161548   9.327   8.075   3.454
19847SOL    HW261549   9.434   8.159   3.521
19848SOL     OW61550   9.169   0.514   2.105
19848SOL    HW161551   9.106   0.442   2.100
19848SOL    HW261552   9.206   0.508   2.193
19849SOL     OW61553   3.514   7.355   4.455
19849SOL    HW161554   3.536   7.303   4.377
19849SOL    HW261555   3.488   7.290   4.520
19850SOL     OW61556   5.937   3.909  10.813
19850SOL    HW161557   5.917   3.993  10.773
19850SOL    HW261558   6.031   3.897  10.799
19851SOL     OW61559   4.803   7.414   0.744
19851SOL    HW161560   4.811   7.495   0.793
19851SOL    HW261561   4.859   7.352   0.791
19852SOL     OW61562   4.083   1.042   1.406
19852SOL    HW161563   4.122   1.085   1.330
19852SOL    HW261564   4.087   0.948   1.385
19853SOL     OW61565   6.793   0.232   0.996
19853SOL    HW161566   6.700   0.212   0.990
19853SOL    HW261567   6.833   0.181   0.925
19854SOL     OW61568   9.910   1.430   9.915
19854SOL    HW161569   9.952   1.458   9.833
19854SOL    HW261570   9.859   1.353   9.890
19855SOL     OW61571   2.226  10.052   5.288
19855SOL    HW161572   2.252   9.962   5.308
19855SOL    HW261573   2.140  10.043   5.247
19856SOL     OW61574   8.990   8.439   4.294
19856SOL    HW161575   8.991   8.529   4.261
19856SOL    HW261576   9.039   8.389   4.229
19857SOL     OW61577   9.483   1.188   0.589
19857SOL    HW161578   9.534   1.191   0.670
19857SOL    HW261579   9.447   1.099   0.587
19858SOL     OW61580   3.931   4.749   7.752
19858SOL    HW161581   3.850   4.698   7.761
19858SOL    HW261582   3.947   4.752   7.657
19859SOL     OW61583   3.974  10.252   1.446
19859SOL    HW161584   3.986  10.267   1.539
19859SOL    HW261585   3.921  10.326   1.416
19860SOL     OW61586   6.663  10.782   3.147
19860SOL    HW161587   6.730  10.742   3.202
19860SOL    HW261588   6.689  10.760   3.057
19861SOL     OW61589   3.422   4.848   9.040
19861SOL    HW161590   3.503   4.898   9.049
19861SOL    HW261591   3.450   4.765   9.001
19862SOL     OW61592   8.742   1.785   3.779
19862SOL    HW161593   8.819   1.732   3.800
19862SOL    HW261594   8.727   1.838   3.857
19863SOL     OW61595   7.984   3.509   3.687
19863SOL    HW161596   8.037   3.429   3.691
19863SOL    HW261597   7.964   3.520   3.594
19864SOL     OW61598   7.880   9.462   5.591
19864SOL    HW161599   7.899   9.493   5.502
19864SOL    HW261600   7.835   9.535   5.633
19865SOL     OW61601   8.300   4.944   9.205
19865SOL    HW161602   8.210   4.975   9.201
19865SOL    HW261603   8.350   5.019   9.236
19866SOL     OW61604   1.624   9.608  10.998
19866SOL    HW161605   1.649   9.675  11.061
19866SOL    HW261606   1.529   9.612  10.995
19867SOL     OW61607   4.696  10.874   5.103
19867SOL    HW161608   4.692  10.833   5.016
19867SOL    HW261609   4.605  10.890   5.126
19868SOL     OW61610   9.392   7.672   3.491
19868SOL    HW161611   9.457   7.713   3.434
19868SOL    HW261612   9.330   7.742   3.511
19869SOL     OW61613   1.624   4.991  10.884
19869SOL    HW161614   1.680   5.065  10.907
19869SOL    HW261615   1.536   5.017  10.910
19870SOL     OW61616  10.560   8.142   0.812
19870SOL    HW161617  10.635   8.184   0.770
19870SOL    HW261618  10.491   8.146   0.746
19871SOL     OW61619   2.739   2.330   4.618
19871SOL    HW161620   2.768   2.256   4.672
19871SOL    HW261621   2.745   2.406   4.676
19872SOL     OW61622   7.417   6.058   5.160
19872SOL    HW161623   7.453   6.143   5.185
19872SOL    HW261624   7.328   6.077   5.132
19873SOL     OW61625   3.372   1.449   8.883
19873SOL    HW161626   3.291   1.476   8.926
19873SOL    HW261627   3.384   1.513   8.813
19874SOL     OW61628   7.081   5.096   8.769
19874SOL    HW161629   7.006   5.152   8.789
19874SOL    HW261630   7.085   5.033   8.841
19875SOL     OW61631  11.019   1.518   3.149
19875SOL    HW161632  11.064   1.469   3.079
19875SOL    HW261633  10.934   1.474   3.158
19876SOL     OW61634   5.648   6.343   2.785
19876SOL    HW161635   5.588   6.281   2.743
19876SOL    HW261636   5.684   6.394   2.712
19877SOL     OW61637   5.677   2.797   5.284
19877SOL    HW161638   5.745   2.790   5.217
19877SOL    HW261639   5.646   2.887   5.277
19878SOL     OW61640  10.490   0.461   0.496
19878SOL    HW161641  10.472   0.378   0.452
19878SOL    HW261642  10.435   0.459   0.574
19879SOL     OW61643   0.461   5.099   3.071
19879SOL    HW161644   0.518   5.033   3.031
19879SOL    HW261645   0.431   5.153   2.997
19880SOL     OW61646   8.698   0.269   2.055
19880SOL    HW161647   8.668   0.339   2.112
19880SOL    HW261648   8.715   0.196   2.114
19881SOL     OW61649   1.404   5.495   1.147
19881SOL    HW161650   1.354   5.463   1.222
19881SOL    HW261651   1.488   5.523   1.184
19882SOL     OW61652   5.085  10.556   4.336
19882SOL    HW161653   5.060  10.647   4.321
19882SOL    HW261654   5.046  10.508   4.262
19883SOL     OW61655  10.413   1.700  11.081
19883SOL    HW161656  10.485   1.747  11.038
19883SOL    HW261657  10.334   1.737  11.042
19884SOL     OW61658   9.569   6.062   1.496
19884SOL    HW161659   9.556   6.015   1.578
19884SOL    HW261660   9.663   6.054   1.478
19885SOL     OW61661   5.597   1.051   9.245
19885SOL    HW161662   5.615   1.090   9.159
19885SOL    HW261663   5.683   1.043   9.286
19886SOL     OW61664   9.241   7.243   6.148
19886SOL    HW161665   9.244   7.190   6.068
19886SOL    HW261666   9.221   7.331   6.117
19887SOL     OW61667   4.890   0.237   9.931
19887SOL    HW161668   4.966   0.290   9.956
19887SOL    HW261669   4.893   0.161   9.989
19888SOL     OW61670   3.727  10.538   9.176
19888SOL    HW161671   3.737  10.521   9.082
19888SOL    HW261672   3.646  10.588   9.182
19889SOL     OW61673   5.949   5.335   9.822
19889SOL    HW161674   5.979   5.261   9.769
19889SOL    HW261675   6.000   5.409   9.790
19890SOL     OW61676   8.849   7.211   5.849
19890SOL    HW161677   8.882   7.147   5.912
19890SOL    HW261678   8.759   7.227   5.876
19891SOL     OW61679   6.423   6.988   2.620
19891SOL    HW161680   6.409   7.074   2.581
19891SOL    HW261681   6.350   6.976   2.680
19892SOL     OW61682   6.074   7.061   1.135
19892SOL    HW161683   6.127   7.102   1.067
19892SOL    HW261684   6.023   7.133   1.172
19893SOL     OW61685   2.269   6.620   4.661
19893SOL    HW161686   2.183   6.579   4.648
19893SOL    HW261687   2.328   6.568   4.606
19894SOL     OW61688   4.056   6.061   3.807
19894SOL    HW161689   4.008   6.059   3.724
19894SOL    HW261690   4.148   6.065   3.781
19895SOL     OW61691  10.077   8.924   2.578
19895SOL    HW161692  10.159   8.888   2.611
19895SOL    HW261693  10.022   8.847   2.563
19896SOL     OW61694   6.179   8.988   5.633
19896SOL    HW161695   6.206   8.900   5.659
19896SOL    HW261696   6.106   9.009   5.691
19897SOL     OW61697  10.637   8.791   5.319
19897SOL    HW161698  10.683   8.707   5.328
19897SOL    HW261699  10.548   8.773   5.350
19898SOL     OW61700   4.960   1.882   4.076
19898SOL    HW161701   5.055   1.869   4.084
19898SOL    HW261702   4.938   1.842   3.991
19899SOL     OW61703   4.765   1.219   7.313
19899SOL    HW161704   4.852   1.180   7.304
19899SOL    HW261705   4.780   1.302   7.357
19900SOL     OW61706   1.528   2.123   1.873
19900SOL    HW161707   1.438   2.127   1.840
19900SOL    HW261708   1.522   2.071   1.953
19901SOL     OW61709   5.740   4.064   3.979
19901SOL    HW161710   5.791   3.988   4.007
19901SOL    HW261711   5.793   4.104   3.910
19902SOL     OW61712   9.710   0.547   8.738
19902SOL    HW161713   9.639   0.548   8.674
19902SOL    HW261714   9.787   0.577   8.689
19903SOL     OW61715   6.513   3.995   4.665
19903SOL    HW161716   6.457   4.072   4.671
19903SOL    HW261717   6.599   4.025   4.693
19904SOL     OW61718   6.609   9.991   2.663
19904SOL    HW161719   6.544   9.928   2.632
19904SOL    HW261720   6.637  10.037   2.584
19905SOL     OW61721   3.015   2.179   5.086
19905SOL    HW161722   3.005   2.211   5.175
19905SOL    HW261723   2.926   2.161   5.057
19906SOL     OW61724   4.245   8.985   9.478
19906SOL    HW161725   4.166   8.997   9.529
19906SOL    HW261726   4.231   9.036   9.398
19907SOL     OW61727   5.141   3.375   5.461
19907SOL    HW161728   5.109   3.457   5.425
19907SOL    HW261729   5.072   3.346   5.520
19908SOL     OW61730  10.208   6.726   9.274
19908SOL    HW161731  10.244   6.746   9.360
19908SOL    HW261732  10.240   6.796   9.217
19909SOL     OW61733   3.741   8.079  10.980
19909SOL    HW161734   3.732   8.051  11.071
19909SOL    HW261735   3.836   8.085  10.966
19910SOL     OW61736   4.726  10.062   7.479
19910SOL    HW161737   4.819  10.043   7.468
19910SOL    HW261738   4.690  10.054   7.390
19911SOL     OW61739  10.195   4.113   5.902
19911SOL    HW161740  10.264   4.177   5.885
19911SOL    HW261741  10.119   4.165   5.925
19912SOL     OW61742   5.512   1.392   2.104
19912SOL    HW161743   5.428   1.419   2.140
19912SOL    HW261744   5.542   1.321   2.161
19913SOL     OW61745   1.547   4.314   4.335
19913SOL    HW161746   1.572   4.250   4.268
19913SOL    HW261747   1.627   4.329   4.385
19914SOL     OW61748   4.116   6.961   8.996
19914SOL    HW161749   4.087   7.029   8.935
19914SOL    HW261750   4.211   6.974   9.003
19915SOL     OW61751   4.930   7.711   3.169
19915SOL    HW161752   4.969   7.737   3.085
19915SOL    HW261753   4.996   7.733   3.234
19916SOL     OW61754   5.360   7.699   9.026
19916SOL    HW161755   5.409   7.622   8.995
19916SOL    HW261756   5.305   7.665   9.096
19917SOL     OW61757   1.540   8.297  10.631
19917SOL    HW161758   1.590   8.264  10.705
19917SOL    HW261759   1.524   8.389  10.651
19918SOL     OW61760   3.788   9.486   3.514
19918SOL    HW161761   3.812   9.550   3.581
19918SOL    HW261762   3.867   9.477   3.460
19919SOL     OW61763   9.151  10.381   2.941
19919SOL    HW161764   9.184  10.469   2.925
19919SOL    HW261765   9.218  10.323   2.905
19920SOL     OW61766   1.269   1.709   7.207
19920SOL    HW161767   1.258   1.787   7.153
19920SOL    HW261768   1.277   1.742   7.296
19921SOL     OW61769   6.152   2.980   8.031
19921SOL    HW161770   6.161   2.922   7.955
19921SOL    HW261771   6.196   3.061   8.004
19922SOL     OW61772   2.103   7.371   3.448
19922SOL    HW161773   2.041   7.443   3.441
19922SOL    HW261774   2.148   7.370   3.363
19923SOL     OW61775   8.655   0.852   5.537
19923SOL    HW161776   8.668   0.765   5.498
19923SOL    HW261777   8.741   0.877   5.570
19924SOL     OW61778   6.837   9.262   9.780
19924SOL    HW161779   6.852   9.348   9.818
19924SOL    HW261780   6.912   9.210   9.809
19925SOL     OW61781  10.330   0.114  10.583
19925SOL    HW161782  10.335   0.087  10.491
19925SOL    HW261783  10.289   0.039  10.627
19926SOL     OW61784   6.147   9.474   2.689
19926SOL    HW161785   6.204   9.546   2.716
19926SOL    HW261786   6.113   9.437   2.770
19927SOL     OW61787   4.760   4.713   3.664
19927SOL    HW161788   4.736   4.623   3.686
19927SOL    HW261789   4.833   4.733   3.723
19928SOL     OW61790   5.003   2.880   2.870
19928SOL    HW161791   5.055   2.896   2.949
19928SOL    HW261792   4.966   2.965   2.848
19929SOL     OW61793   0.198   1.162   2.047
19929SOL    HW161794   0.123   1.217   2.025
19929SOL    HW261795   0.249   1.214   2.109
19930SOL     OW61796   7.095   9.742   9.579
19930SOL    HW161797   7.029   9.673   9.573
19930SOL    HW261798   7.095   9.768   9.671
19931SOL     OW61799   4.857   5.338   8.354
19931SOL    HW161800   4.878   5.294   8.271
19931SOL    HW261801   4.873   5.272   8.421
19932SOL     OW61802   8.578   6.756   6.120
19932SOL    HW161803   8.601   6.763   6.212
19932SOL    HW261804   8.633   6.684   6.087
19933SOL     OW61805   4.433   8.711   2.041
19933SOL    HW161806   4.515   8.716   1.992
19933SOL    HW261807   4.368   8.747   1.981
19934SOL     OW61808   4.009   0.511   1.759
19934SOL    HW161809   4.057   0.430   1.779
19934SOL    HW261810   3.934   0.482   1.707
19935SOL     OW61811  10.710   9.998  10.775
19935SOL    HW161812  10.796  10.032  10.800
19935SOL    HW261813  10.686  10.048  10.697
19936SOL     OW61814   4.071  10.007   4.402
19936SOL    HW161815   3.986   9.991   4.361
19936SOL    HW261816   4.114   9.921   4.401
19937SOL     OW61817  10.202  10.649   5.884
19937SOL    HW161818  10.243  10.574   5.926
19937SOL    HW261819  10.165  10.700   5.956
19938SOL     OW61820   2.228   4.066   5.651
19938SOL    HW161821   2.252   3.988   5.702
19938SOL    HW261822   2.145   4.095   5.688
19939SOL     OW61823   2.263   3.909   6.083
19939SOL    HW161824   2.312   3.942   6.007
19939SOL    HW261825   2.320   3.927   6.158
19940SOL     OW61826   7.837   9.875   1.942
19940SOL    HW161827   7.759   9.921   1.911
19940SOL    HW261828   7.816   9.848   2.031
19941SOL     OW61829   3.252   9.122   5.826
19941SOL    HW161830   3.182   9.135   5.890
19941SOL    HW261831   3.300   9.045   5.858
19942SOL     OW61832   1.102   9.629   0.702
19942SOL    HW161833   1.162   9.695   0.736
19942SOL    HW261834   1.030   9.678   0.664
19943SOL     OW61835   0.375   9.248   2.745
19943SOL    HW161836   0.329   9.186   2.802
19943SOL    HW261837   0.432   9.193   2.691
19944SOL     OW61838   1.328   0.827   6.761
19944SOL    HW161839   1.392   0.877   6.810
19944SOL    HW261840   1.375   0.799   6.682
19945SOL     OW61841   2.140   7.977   5.715
19945SOL    HW161842   2.162   7.908   5.652
19945SOL    HW261843   2.219   8.032   5.718
19946SOL     OW61844   5.122  10.950   8.503
19946SOL    HW161845   5.203  10.999   8.485
19946SOL    HW261846   5.052  11.014   8.491
19947SOL     OW61847   4.871   5.691   9.050
19947SOL    HW161848   4.945   5.638   9.080
19947SOL    HW261849   4.821   5.710   9.129
19948SOL     OW61850   3.600   8.596   0.359
19948SOL    HW161851   3.569   8.686   0.361
19948SOL    HW261852   3.557   8.553   0.433
19949SOL     OW61853   4.708   1.809   3.175
19949SOL    HW161854   4.685   1.720   3.202
19949SOL    HW261855   4.719   1.857   3.257
19950SOL     OW61856   4.590   6.708   6.441
19950SOL    HW161857   4.680   6.683   6.420
19950SOL    HW261858   4.579   6.685   6.533
19951SOL     OW61859   4.880   7.190   6.288
19951SOL    HW161860   4.975   7.191   6.301
19951SOL    HW261861   4.868   7.222   6.198
19952SOL     OW61862   7.334  10.203   7.127
19952SOL    HW161863   7.303  10.243   7.046
19952SOL    HW261864   7.369  10.118   7.099
19953SOL     OW61865   4.639   6.166  10.819
19953SOL    HW161866   4.729   6.153  10.787
19953SOL    HW261867   4.606   6.240  10.769
19954SOL     OW61868   4.127   5.288   2.967
19954SOL    HW161869   4.173   5.371   2.978
19954SOL    HW261870   4.089   5.293   2.879
19955SOL     OW61871   6.629   5.935   9.819
19955SOL    HW161872   6.627   5.897   9.731
19955SOL    HW261873   6.650   6.027   9.805
19956SOL     OW61874   6.872   9.850   5.792
19956SOL    HW161875   6.905   9.766   5.825
19956SOL    HW261876   6.778   9.848   5.810
19957SOL     OW61877   0.973   3.279   8.866
19957SOL    HW161878   1.020   3.359   8.845
19957SOL    HW261879   1.031   3.232   8.926
19958SOL     OW61880   6.964   7.546   3.348
19958SOL    HW161881   6.943   7.454   3.331
19958SOL    HW261882   6.879   7.587   3.363
19959SOL     OW61883  10.506   4.630   2.483
19959SOL    HW161884  10.593   4.632   2.523
19959SOL    HW261885  10.453   4.578   2.543
19960SOL     OW61886   1.436   6.328   0.206
19960SOL    HW161887   1.352   6.364   0.235
19960SOL    HW261888   1.487   6.318   0.286
19961SOL     OW61889   0.757   5.674   6.040
19961SOL    HW161890   0.694   5.672   5.968
19961SOL    HW261891   0.841   5.655   5.998
19962SOL     OW61892   2.918   9.359   3.109
19962SOL    HW161893   2.939   9.448   3.137
19962SOL    HW261894   2.971   9.303   3.166
19963SOL     OW61895   5.401   0.122   1.836
19963SOL    HW161896   5.364   0.059   1.774
19963SOL    HW261897   5.484   0.083   1.863
19964SOL     OW61898   5.172   9.220   4.035
19964SOL    HW161899   5.117   9.283   3.989
19964SOL    HW261900   5.156   9.237   4.128
19965SOL     OW61901   6.172  10.506   4.831
19965SOL    HW161902   6.179  10.502   4.926
19965SOL    HW261903   6.083  10.475   4.812
19966SOL     OW61904   5.444   0.660   1.399
19966SOL    HW161905   5.417   0.580   1.353
19966SOL    HW261906   5.468   0.631   1.487
19967SOL     OW61907   5.600   6.030   7.514
19967SOL    HW161908   5.554   5.977   7.448
19967SOL    HW261909   5.543   6.105   7.529
19968SOL     OW61910   8.603   2.148  11.051
19968SOL    HW161911   8.636   2.203  11.121
19968SOL    HW261912   8.628   2.194  10.971
19969SOL     OW61913   2.269   6.296   9.715
19969SOL    HW161914   2.345   6.279   9.658
19969SOL    HW261915   2.306   6.306   9.802
19970SOL     OW61916   3.683   7.096   5.686
19970SOL    HW161917   3.747   7.167   5.678
19970SOL    HW261918   3.672   7.083   5.780
19971SOL     OW61919   2.135   0.138  10.844
19971SOL    HW161920   2.106   0.135  10.935
19971SOL    HW261921   2.139   0.046  10.817
19972SOL     OW61922   6.067   6.311   7.465
19972SOL    HW161923   6.034   6.283   7.379
19972SOL    HW261924   6.084   6.229   7.512
19973SOL     OW61925   7.975   1.750   0.788
19973SOL    HW161926   8.038   1.822   0.785
19973SOL    HW261927   7.956   1.738   0.881
19974SOL     OW61928   8.503   6.508   3.207
19974SOL    HW161929   8.474   6.587   3.251
19974SOL    HW261930   8.569   6.538   3.144
19975SOL     OW61931   3.629   3.372  10.042
19975SOL    HW161932   3.711   3.421  10.041
19975SOL    HW261933   3.653   3.285  10.074
19976SOL     OW61934   7.941   5.443   2.521
19976SOL    HW161935   7.963   5.370   2.579
19976SOL    HW261936   7.903   5.401   2.444
19977SOL     OW61937   3.946   1.240   7.432
19977SOL    HW161938   3.936   1.162   7.377
19977SOL    HW261939   3.910   1.214   7.517
19978SOL     OW61940   6.178   9.883  10.522
19978SOL    HW161941   6.274   9.880  10.521
19978SOL    HW261942   6.151   9.794  10.497
19979SOL     OW61943   5.138   5.648   5.407
19979SOL    HW161944   5.138   5.742   5.390
19979SOL    HW261945   5.216   5.633   5.460
19980SOL     OW61946   3.222   7.342   7.561
19980SOL    HW161947   3.132   7.365   7.539
19980SOL    HW261948   3.251   7.287   7.487
19981SOL     OW61949   5.241   4.754   3.887
19981SOL    HW161950   5.306   4.690   3.917
19981SOL    HW261951   5.263   4.835   3.933
19982SOL     OW61952   6.950   8.255   5.566
19982SOL    HW161953   6.874   8.213   5.526
19982SOL    HW261954   7.025   8.218   5.520
19983SOL     OW61955   4.766   9.357   8.333
19983SOL    HW161956   4.752   9.347   8.238
19983SOL    HW261957   4.820   9.435   8.341
19984SOL     OW61958   2.875   9.299   2.070
19984SOL    HW161959   2.858   9.205   2.082
19984SOL    HW261960   2.803   9.343   2.115
19985SOL     OW61961  10.302   6.073   9.232
19985SOL    HW161962  10.212   6.088   9.260
19985SOL    HW261963  10.307   6.111   9.144
19986SOL     OW61964   0.474   3.154   5.974
19986SOL    HW161965   0.507   3.066   5.955
19986SOL    HW261966   0.535   3.212   5.929
19987SOL     OW61967   4.359   8.183  10.431
19987SOL    HW161968   4.382   8.109  10.374
19987SOL    HW261969   4.298   8.146  10.494
19988SOL     OW61970   8.140   7.522   6.739
19988SOL    HW161971   8.216   7.551   6.688
19988SOL    HW261972   8.175   7.454   6.797
19989SOL     OW61973   2.914   9.393   5.245
19989SOL    HW161974   2.943   9.354   5.162
19989SOL    HW261975   2.885   9.481   5.221
19990SOL     OW61976   4.623   4.384   4.746
19990SOL    HW161977   4.653   4.373   4.836
19990SOL    HW261978   4.567   4.308   4.730
19991SOL     OW61979   3.570   7.034   3.726
19991SOL    HW161980   3.528   7.120   3.732
19991SOL    HW261981   3.503   6.972   3.756
19992SOL     OW61982   1.496   5.776   8.813
19992SOL    HW161983   1.478   5.721   8.737
19992SOL    HW261984   1.586   5.805   8.801
19993SOL     OW61985   7.079   7.856   4.939
19993SOL    HW161986   7.107   7.937   4.981
19993SOL    HW261987   7.109   7.787   4.997
19994SOL     OW61988  10.634  10.129  10.553
19994SOL    HW161989  10.572  10.147  10.482
19994SOL    HW261990  10.703  10.194  10.541
19995SOL     OW61991   7.737   1.673   2.523
19995SOL    HW161992   7.690   1.709   2.598
19995SOL    HW261993   7.744   1.745   2.461
19996SOL     OW61994   6.166   0.756   9.685
19996SOL    HW161995   6.156   0.793   9.772
19996SOL    HW261996   6.105   0.682   9.683
19997SOL     OW61997   3.272   9.145   1.482
19997SOL    HW161998   3.257   9.204   1.408
19997SOL    HW261999   3.186   9.108   1.501
19998SOL     OW62000   5.428   8.907   7.086
19998SOL    HW162001   5.485   8.961   7.141
19998SOL    HW262002   5.481   8.829   7.065
19999SOL     OW62003   7.552   0.477   7.110
19999SOL    HW162004   7.566   0.475   7.204
19999SOL    HW262005   7.610   0.546   7.078
20000SOL     OW62006   7.435   0.602   7.628
20000SOL    HW162007   7.409   0.580   7.538
20000SOL    HW262008   7.355   0.634   7.669
20001SOL     OW62009   5.542   7.882   4.900
20001SOL    HW162010   5.513   7.954   4.844
20001SOL    HW262011   5.636   7.897   4.911
20002SOL     OW62012   8.292   6.572   6.576
20002SOL    HW162013   8.206   6.585   6.537
20002SOL    HW262014   8.345   6.643   6.541
20003SOL     OW62015   8.500   1.288   4.281
20003SOL    HW162016   8.535   1.200   4.299
20003SOL    HW262017   8.575   1.346   4.291
20004SOL     OW62018   1.904   8.161   6.487
20004SOL    HW162019   1.927   8.232   6.428
20004SOL    HW262020   1.912   8.198   6.574
20005SOL     OW62021   6.494   9.384   4.545
20005SOL    HW162022   6.586   9.360   4.533
20005SOL    HW262023   6.484   9.396   4.639
20006SOL     OW62024   1.683   0.092   5.414
20006SOL    HW162025   1.768   0.120   5.447
20006SOL    HW262026   1.651   0.166   5.363
20007SOL     OW62027   3.014   8.271   3.282
20007SOL    HW162028   2.947   8.272   3.350
20007SOL    HW262029   3.058   8.186   3.293
20008SOL     OW62030   7.069   9.300   7.881
20008SOL    HW162031   6.978   9.308   7.854
20008SOL    HW262032   7.090   9.383   7.923
20009SOL     OW62033   7.480   4.375   6.580
20009SOL    HW162034   7.432   4.425   6.646
20009SOL    HW262035   7.472   4.284   6.608
20010SOL     OW62036   2.560   9.839   1.485
20010SOL    HW162037   2.476   9.838   1.439
20010SOL    HW262038   2.538   9.864   1.574
20011SOL     OW62039   2.990   1.707   3.844
20011SOL    HW162040   3.074   1.693   3.799
20011SOL    HW262041   3.014   1.729   3.934
20012SOL     OW62042   9.564   7.896   0.624
20012SOL    HW162043   9.475   7.915   0.654
20012SOL    HW262044   9.553   7.868   0.533
20013SOL     OW62045   4.366   8.334   3.143
20013SOL    HW162046   4.371   8.336   3.047
20013SOL    HW262047   4.328   8.248   3.163
20014SOL     OW62048   4.245   1.528   6.303
20014SOL    HW162049   4.152   1.528   6.282
20014SOL    HW262050   4.283   1.463   6.244
20015SOL     OW62051   2.177   9.858   6.213
20015SOL    HW162052   2.094   9.867   6.166
20015SOL    HW262053   2.153   9.859   6.305
20016SOL     OW62054   6.909   6.722   8.208
20016SOL    HW162055   6.961   6.733   8.288
20016SOL    HW262056   6.959   6.658   8.156
20017SOL     OW62057   2.981   5.974   5.192
20017SOL    HW162058   3.075   5.976   5.171
20017SOL    HW262059   2.973   5.906   5.259
20018SOL     OW62060   5.043   1.200   8.405
20018SOL    HW162061   5.073   1.110   8.416
20018SOL    HW262062   5.010   1.202   8.315
20019SOL     OW62063   3.424   4.339   2.946
20019SOL    HW162064   3.416   4.284   3.024
20019SOL    HW262065   3.518   4.352   2.935
20020SOL     OW62066  10.966   5.021   2.572
20020SOL    HW162067  10.933   5.072   2.645
20020SOL    HW262068  10.889   5.000   2.519
20021SOL     OW62069   1.831   7.806   6.735
20021SOL    HW162070   1.884   7.819   6.656
20021SOL    HW262071   1.796   7.893   6.755
20022SOL     OW62072   1.875   8.538   3.257
20022SOL    HW162073   1.831   8.615   3.222
20022SOL    HW262074   1.806   8.472   3.263
20023SOL     OW62075   9.547   7.791   9.396
20023SOL    HW162076   9.541   7.705   9.353
20023SOL    HW262077   9.592   7.773   9.478
20024SOL     OW62078   4.506   7.291   1.459
20024SOL    HW162079   4.433   7.296   1.520
20024SOL    HW262080   4.580   7.260   1.512
20025SOL     OW62081   0.057   4.141   7.113
20025SOL    HW162082   0.036   4.198   7.039
20025SOL    HW262083   0.120   4.078   7.077
20026SOL     OW62084   2.954   7.351   7.493
20026SOL    HW162085   3.008   7.378   7.418
20026SOL    HW262086   2.872   7.322   7.453
20027SOL     OW62087   1.701   9.413   4.875
20027SOL    HW162088   1.743   9.452   4.798
20027SOL    HW262089   1.765   9.349   4.907
20028SOL     OW62090   1.502   3.430   3.866
20028SOL    HW162091   1.593   3.458   3.859
20028SOL    HW262092   1.485   3.383   3.784
20029SOL     OW62093   6.445   8.034  10.900
20029SOL    HW162094   6.535   8.006  10.916
20029SOL    HW262095   6.396   7.952  10.889
20030SOL     OW62096   2.265   0.204   7.824
20030SOL    HW162097   2.304   0.288   7.799
20030SOL    HW262098   2.276   0.149   7.746
20031SOL     OW62099   9.150  10.325   7.031
20031SOL    HW162100   9.112  10.359   7.112
20031SOL    HW262101   9.206  10.395   6.999
20032SOL     OW62102  10.676   6.432   2.861
20032SOL    HW162103  10.604   6.386   2.904
20032SOL    HW262104  10.635   6.480   2.789
20033SOL     OW62105   6.100   3.398   9.522
20033SOL    HW162106   6.103   3.387   9.617
20033SOL    HW262107   6.162   3.332   9.488
20034SOL     OW62108  10.935   8.351   2.080
20034SOL    HW162109  10.932   8.274   2.023
20034SOL    HW262110  10.844   8.380   2.086
20035SOL     OW62111   5.811   9.668   9.945
20035SOL    HW162112   5.729   9.699   9.984
20035SOL    HW262113   5.785   9.629   9.861
20036SOL     OW62114   7.690  10.086   8.650
20036SOL    HW162115   7.760  10.085   8.715
20036SOL    HW262116   7.663   9.994   8.643
20037SOL     OW62117   2.890   9.329   2.437
20037SOL    HW162118   2.968   9.359   2.390
20037SOL    HW262119   2.919   9.249   2.482
20038SOL     OW62120   0.991   8.612   1.406
20038SOL    HW162121   0.923   8.661   1.360
20038SOL    HW262122   0.946   8.571   1.480
20039SOL     OW62123   1.781   8.892   4.011
20039SOL    HW162124   1.740   8.821   3.961
20039SOL    HW262125   1.753   8.877   4.101
20040SOL     OW62126   1.023   8.577   1.831
20040SOL    HW162127   0.943   8.595   1.782
20040SOL    HW262128   0.993   8.546   1.916
20041SOL     OW62129   0.829   5.232   3.892
20041SOL    HW162130   0.857   5.207   3.980
20041SOL    HW262131   0.765   5.165   3.867
20042SOL     OW62132   9.713   7.650   7.790
20042SOL    HW162133   9.773   7.579   7.815
20042SOL    HW262134   9.686   7.689   7.873
20043SOL     OW62135   2.543   9.816   7.351
20043SOL    HW162136   2.576   9.733   7.316
20043SOL    HW262137   2.619   9.857   7.391
20044SOL     OW62138   7.018   8.972   3.085
20044SOL    HW162139   7.078   9.033   3.128
20044SOL    HW262140   7.022   8.995   2.992
20045SOL     OW62141   5.549   9.150  10.593
20045SOL    HW162142   5.496   9.138  10.514
20045SOL    HW262143   5.536   9.241  10.617
20046SOL     OW62144   0.667   3.234   9.575
20046SOL    HW162145   0.601   3.182   9.621
20046SOL    HW262146   0.733   3.254   9.641
20047SOL     OW62147   0.632   0.824   2.314
20047SOL    HW162148   0.628   0.894   2.379
20047SOL    HW262149   0.724   0.797   2.313
20048SOL     OW62150   9.708   7.735   2.963
20048SOL    HW162151   9.783   7.715   3.018
20048SOL    HW262152   9.659   7.801   3.011
20049SOL     OW62153   7.594   6.031   9.696
20049SOL    HW162154   7.568   6.041   9.604
20049SOL    HW262155   7.580   6.117   9.735
20050SOL     OW62156   4.709   0.306   9.244
20050SOL    HW162157   4.718   0.264   9.329
20050SOL    HW262158   4.783   0.366   9.239
20051SOL     OW62159   1.941   8.454   7.346
20051SOL    HW162160   1.889   8.461   7.266
20051SOL    HW262161   1.942   8.542   7.382
20052SOL     OW62162   8.670   1.352   2.233
20052SOL    HW162163   8.580   1.322   2.247
20052SOL    HW262164   8.697   1.387   2.318
20053SOL     OW62165   6.202   4.899   6.456
20053SOL    HW162166   6.204   4.976   6.399
20053SOL    HW262167   6.286   4.901   6.502
20054SOL     OW62168   3.957   0.543   5.573
20054SOL    HW162169   3.919   0.554   5.486
20054SOL    HW262170   4.000   0.457   5.569
20055SOL     OW62171   6.021   9.321   1.371
20055SOL    HW162172   5.952   9.282   1.425
20055SOL    HW262173   6.074   9.246   1.342
20056SOL     OW62174   1.566   0.614   2.625
20056SOL    HW162175   1.526   0.587   2.542
20056SOL    HW262176   1.660   0.613   2.607
20057SOL     OW62177   7.767   8.546   9.556
20057SOL    HW162178   7.828   8.600   9.506
20057SOL    HW262179   7.778   8.458   9.519
20058SOL     OW62180   5.215   1.234   4.040
20058SOL    HW162181   5.183   1.158   4.089
20058SOL    HW262182   5.279   1.197   3.979
20059SOL     OW62183   2.968  10.614  10.337
20059SOL    HW162184   2.941  10.705  10.328
20059SOL    HW262185   3.058  10.619  10.369
20060SOL     OW62186   1.587   7.650   3.283
20060SOL    HW162187   1.520   7.646   3.351
20060SOL    HW262188   1.556   7.717   3.222
20061SOL     OW62189   2.382   9.247   7.799
20061SOL    HW162190   2.320   9.280   7.734
20061SOL    HW262191   2.330   9.232   7.877
20062SOL     OW62192   3.168   5.404   1.111
20062SOL    HW162193   3.254   5.410   1.069
20062SOL    HW262194   3.169   5.318   1.154
20063SOL     OW62195   6.152  10.021  10.045
20063SOL    HW162196   6.126   9.931  10.068
20063SOL    HW262197   6.194  10.012   9.959
20064SOL     OW62198   3.806   8.088   9.643
20064SOL    HW162199   3.862   8.057   9.714
20064SOL    HW262200   3.721   8.104   9.684
20065SOL     OW62201   4.412   5.932   3.086
20065SOL    HW162202   4.380   6.013   3.125
20065SOL    HW262203   4.484   5.905   3.143
20066SOL     OW62204   7.877   9.528   2.071
20066SOL    HW162205   7.949   9.501   2.128
20066SOL    HW262206   7.835   9.600   2.117
20067SOL     OW62207   8.766   0.498   4.704
20067SOL    HW162208   8.757   0.482   4.798
20067SOL    HW262209   8.860   0.489   4.687
20068SOL     OW62210   5.058   8.117   4.769
20068SOL    HW162211   5.096   8.166   4.842
20068SOL    HW262212   4.965   8.136   4.772
20069SOL     OW62213   8.804   6.718   9.141
20069SOL    HW162214   8.821   6.804   9.177
20069SOL    HW262215   8.769   6.667   9.214
20070SOL     OW62216   5.475   8.164   6.176
20070SOL    HW162217   5.386   8.135   6.155
20070SOL    HW262218   5.464   8.247   6.222
20071SOL     OW62219   0.933   6.583   1.973
20071SOL    HW162220   0.998   6.616   2.035
20071SOL    HW262221   0.891   6.661   1.938
20072SOL     OW62222   1.226   6.395   2.586
20072SOL    HW162223   1.297   6.375   2.524
20072SOL    HW262224   1.229   6.490   2.596
20073SOL     OW62225   8.407  10.641   5.897
20073SOL    HW162226   8.416  10.736   5.906
20073SOL    HW262227   8.419  10.607   5.985
20074SOL     OW62228   2.485   8.677   2.475
20074SOL    HW162229   2.516   8.601   2.425
20074SOL    HW262230   2.549   8.687   2.545
20075SOL     OW62231  10.175   0.963   3.040
20075SOL    HW162232  10.084   0.954   3.012
20075SOL    HW262233  10.172   1.017   3.119
20076SOL     OW62234   5.707   7.940   5.944
20076SOL    HW162235   5.715   7.856   5.899
20076SOL    HW262236   5.695   8.003   5.873
20077SOL     OW62237   1.403   6.061  10.129
20077SOL    HW162238   1.370   5.971  10.122
20077SOL    HW262239   1.370   6.093  10.213
20078SOL     OW62240   4.511  10.018   5.647
20078SOL    HW162241   4.591   9.989   5.602
20078SOL    HW262242   4.447   9.948   5.629
20079SOL     OW62243   7.704   3.351   2.221
20079SOL    HW162244   7.708   3.441   2.189
20079SOL    HW262245   7.627   3.314   2.178
20080SOL     OW62246   7.690   6.667   3.902
20080SOL    HW162247   7.656   6.704   3.983
20080SOL    HW262248   7.618   6.613   3.868
20081SOL     OW62249   1.088   8.765   0.654
20081SOL    HW162250   1.085   8.809   0.569
20081SOL    HW262251   1.000   8.777   0.690
20082SOL     OW62252  10.225   8.430   3.065
20082SOL    HW162253  10.168   8.361   3.099
20082SOL    HW262254  10.181   8.512   3.088
20083SOL     OW62255   4.907   6.903   6.415
20083SOL    HW162256   4.982   6.889   6.472
20083SOL    HW262257   4.938   6.877   6.328
20084SOL     OW62258  10.047   9.050   2.136
20084SOL    HW162259   9.992   9.086   2.066
20084SOL    HW262260  10.056   8.957   2.114
20085SOL     OW62261   2.224   4.680   7.488
20085SOL    HW162262   2.261   4.654   7.403
20085SOL    HW262263   2.263   4.765   7.506
20086SOL     OW62264   6.622   4.486   9.545
20086SOL    HW162265   6.607   4.433   9.467
20086SOL    HW262266   6.577   4.568   9.527
20087SOL     OW62267   7.961   5.124   6.308
20087SOL    HW162268   7.886   5.167   6.349
20087SOL    HW262269   7.943   5.128   6.214
20088SOL     OW62270   5.495   7.981   7.628
20088SOL    HW162271   5.410   7.947   7.600
20088SOL    HW262272   5.484   7.999   7.721
20089SOL     OW62273  10.024   3.546   3.378
20089SOL    HW162274  10.012   3.465   3.327
20089SOL    HW262275  10.003   3.521   3.468
20090SOL     OW62276   5.487   7.311   3.664
20090SOL    HW162277   5.547   7.319   3.738
20090SOL    HW262278   5.544   7.300   3.588
20091SOL     OW62279   3.864   0.444   0.435
20091SOL    HW162280   3.831   0.380   0.372
20091SOL    HW262281   3.956   0.456   0.410
20092SOL     OW62282   6.246   6.089   3.219
20092SOL    HW162283   6.259   6.040   3.300
20092SOL    HW262284   6.214   6.174   3.247
20093SOL     OW62285   0.595   0.023  10.934
20093SOL    HW162286   0.607   0.090  11.000
20093SOL    HW262287   0.508  -0.013  10.951
20094SOL     OW62288   6.309   2.665   5.945
20094SOL    HW162289   6.242   2.598   5.933
20094SOL    HW262290   6.260   2.747   5.951
20095SOL     OW62291   8.779   4.592   4.913
20095SOL    HW162292   8.712   4.655   4.886
20095SOL    HW262293   8.748   4.508   4.879
20096SOL     OW62294   8.138   8.412   1.639
20096SOL    HW162295   8.091   8.338   1.677
20096SOL    HW262296   8.074   8.455   1.583
20097SOL     OW62297   2.487  10.445  10.002
20097SOL    HW162298   2.431  10.522  10.014
20097SOL    HW262299   2.496  10.437   9.907
20098SOL     OW62300   9.893   8.671   2.896
20098SOL    HW162301   9.824   8.617   2.933
20098SOL    HW262302   9.863   8.761   2.909
20099SOL     OW62303   3.835   7.101   3.737
20099SOL    HW162304   3.859   7.076   3.647
20099SOL    HW262305   3.744   7.074   3.745
20100SOL     OW62306   0.496   9.491   4.426
20100SOL    HW162307   0.425   9.543   4.463
20100SOL    HW262308   0.558   9.556   4.393
20101SOL     OW62309   9.815   5.704   2.804
20101SOL    HW162310   9.868   5.660   2.737
20101SOL    HW262311   9.782   5.633   2.859
20102SOL     OW62312   0.497   4.849   3.566
20102SOL    HW162313   0.492   4.898   3.484
20102SOL    HW262314   0.414   4.867   3.610
20103SOL     OW62315   1.758   2.357   4.421
20103SOL    HW162316   1.849   2.376   4.443
20103SOL    HW262317   1.719   2.329   4.503
20104SOL     OW62318   4.728   1.257   3.611
20104SOL    HW162319   4.658   1.233   3.671
20104SOL    HW262320   4.805   1.212   3.645
20105SOL     OW62321   4.665  11.070   9.917
20105SOL    HW162322   4.608  11.086   9.992
20105SOL    HW262323   4.610  11.087   9.840
20106SOL     OW62324   2.784   6.374   0.718
20106SOL    HW162325   2.696   6.340   0.702
20106SOL    HW262326   2.842   6.306   0.683
20107SOL     OW62327   8.852   9.123   9.198
20107SOL    HW162328   8.908   9.196   9.172
20107SOL    HW262329   8.784   9.163   9.252
20108SOL     OW62330   2.342   6.244   9.122
20108SOL    HW162331   2.377   6.325   9.086
20108SOL    HW262332   2.283   6.211   9.054
20109SOL     OW62333   4.202   2.253   5.744
20109SOL    HW162334   4.240   2.338   5.766
20109SOL    HW262335   4.114   2.273   5.713
20110SOL     OW62336   1.243   2.128   3.135
20110SOL    HW162337   1.279   2.210   3.169
20110SOL    HW262338   1.280   2.060   3.191
20111SOL     OW62339   3.750   4.322   4.866
20111SOL    HW162340   3.767   4.241   4.818
20111SOL    HW262341   3.837   4.354   4.890
20112SOL     OW62342  10.653   6.544   7.489
20112SOL    HW162343  10.720   6.515   7.551
20112SOL    HW262344  10.686   6.626   7.454
20113SOL     OW62345   7.998   9.953   4.758
20113SOL    HW162346   8.002   9.987   4.847
20113SOL    HW262347   7.939  10.012   4.712
20114SOL     OW62348  10.417   8.605   4.109
20114SOL    HW162349  10.347   8.668   4.125
20114SOL    HW262350  10.489   8.657   4.074
20115SOL     OW62351   8.970   9.206   8.731
20115SOL    HW162352   8.897   9.144   8.723
20115SOL    HW262353   8.934   9.289   8.702
20116SOL     OW62354   1.406   9.156   7.077
20116SOL    HW162355   1.360   9.206   7.144
20116SOL    HW262356   1.396   9.064   7.104
20117SOL     OW62357   7.406   2.024  10.899
20117SOL    HW162358   7.492   1.990  10.924
20117SOL    HW262359   7.390   1.987  10.812
20118SOL     OW62360   7.528   3.086   2.312
20118SOL    HW162361   7.527   3.135   2.394
20118SOL    HW262362   7.506   3.151   2.245
20119SOL     OW62363   5.280   8.059   8.574
20119SOL    HW162364   5.189   8.088   8.569
20119SOL    HW262365   5.301   8.060   8.667
20120SOL     OW62366   5.527   7.520   8.661
20120SOL    HW162367   5.457   7.480   8.609
20120SOL    HW262368   5.482   7.556   8.737
20121SOL     OW62369   1.971   1.968   3.977
20121SOL    HW162370   1.898   2.024   4.002
20121SOL    HW262371   1.930   1.886   3.948
20122SOL     OW62372   2.384   9.420   8.514
20122SOL    HW162373   2.374   9.350   8.579
20122SOL    HW262374   2.447   9.385   8.451
20123SOL     OW62375   4.411  10.858   5.228
20123SOL    HW162376   4.416  10.928   5.292
20123SOL    HW262377   4.389  10.780   5.279
20124SOL     OW62378   1.390   4.163   2.436
20124SOL    HW162379   1.454   4.093   2.453
20124SOL    HW262380   1.402   4.183   2.343
20125SOL     OW62381   3.307   4.973   1.834
20125SOL    HW162382   3.257   4.892   1.846
20125SOL    HW262383   3.241   5.038   1.810
20126SOL     OW62384   9.909   9.875   8.019
20126SOL    HW162385   9.835   9.814   8.020
20126SOL    HW262386   9.874   9.954   7.978
20127SOL     OW62387   6.054   0.419   4.777
20127SOL    HW162388   5.959   0.419   4.783
20127SOL    HW262389   6.083   0.383   4.861
20128SOL     OW62390   3.524   8.995  10.459
20128SOL    HW162391   3.525   9.026  10.368
20128SOL    HW262392   3.594   9.044  10.502
20129SOL     OW62393   3.142   2.907   9.971
20129SOL    HW162394   3.107   2.919  10.059
20129SOL    HW262395   3.199   2.982   9.956
20130SOL     OW62396   7.905  11.024   5.315
20130SOL    HW162397   7.867  10.989   5.395
20130SOL    HW262398   7.891  11.119   5.321
20131SOL     OW62399   1.414   6.598   6.606
20131SOL    HW162400   1.414   6.521   6.548
20131SOL    HW262401   1.322   6.613   6.626
20132SOL     OW62402   2.141   7.700   4.400
20132SOL    HW162403   2.096   7.651   4.330
20132SOL    HW262404   2.161   7.634   4.466
20133SOL     OW62405   3.832  10.454   5.702
20133SOL    HW162406   3.914  10.419   5.667
20133SOL    HW262407   3.820  10.537   5.656
20134SOL     OW62408   7.690   2.362   9.009
20134SOL    HW162409   7.708   2.316   8.926
20134SOL    HW262410   7.710   2.454   8.990
20135SOL     OW62411   5.415   0.439   3.774
20135SOL    HW162412   5.477   0.446   3.701
20135SOL    HW262413   5.332   0.416   3.732
20136SOL     OW62414   5.009   1.064   9.202
20136SOL    HW162415   5.095   1.026   9.220
20136SOL    HW262416   4.965   1.066   9.287
20137SOL     OW62417   5.618   5.274   6.099
20137SOL    HW162418   5.662   5.260   6.015
20137SOL    HW262419   5.686   5.258   6.164
20138SOL     OW62420   1.115   4.105   7.758
20138SOL    HW162421   1.191   4.145   7.800
20138SOL    HW262422   1.119   4.013   7.785
20139SOL     OW62423   7.860   5.995   9.769
20139SOL    HW162424   7.790   6.054   9.741
20139SOL    HW262425   7.898   6.037   9.846
20140SOL     OW62426   6.823   8.335   9.056
20140SOL    HW162427   6.771   8.254   9.060
20140SOL    HW262428   6.912   8.307   9.080
20141SOL     OW62429   5.687   1.289   5.155
20141SOL    HW162430   5.706   1.330   5.239
20141SOL    HW262431   5.608   1.237   5.170
20142SOL     OW62432   8.666   2.371   3.637
20142SOL    HW162433   8.617   2.389   3.556
20142SOL    HW262434   8.605   2.393   3.707
20143SOL     OW62435   8.557   9.021   4.929
20143SOL    HW162436   8.547   9.075   4.850
20143SOL    HW262437   8.468   9.006   4.960
20144SOL     OW62438   3.570   5.533  10.744
20144SOL    HW162439   3.569   5.571  10.656
20144SOL    HW262440   3.482   5.547  10.777
20145SOL     OW62441   3.589  10.810   1.316
20145SOL    HW162442   3.499  10.819   1.285
20145SOL    HW262443   3.588  10.730   1.369
20146SOL     OW62444   5.252   6.911   6.494
20146SOL    HW162445   5.200   6.858   6.555
20146SOL    HW262446   5.300   6.846   6.442
20147SOL     OW62447   0.066   6.707   4.324
20147SOL    HW162448   0.141   6.752   4.362
20147SOL    HW262449   0.075   6.721   4.229
20148SOL     OW62450   5.950   7.254   8.961
20148SOL    HW162451   5.953   7.161   8.983
20148SOL    HW262452   5.954   7.299   9.045
20149SOL     OW62453   5.839   7.662   8.999
20149SOL    HW162454   5.932   7.684   8.999
20149SOL    HW262455   5.823   7.622   9.084
20150SOL     OW62456   2.788   9.405   1.260
20150SOL    HW162457   2.789   9.474   1.326
20150SOL    HW262458   2.850   9.434   1.193
20151SOL     OW62459   6.286   5.812   2.881
20151SOL    HW162460   6.382   5.814   2.881
20151SOL    HW262461   6.263   5.775   2.795
20152SOL     OW62462   6.302   1.375   8.939
20152SOL    HW162463   6.297   1.458   8.892
20152SOL    HW262464   6.393   1.346   8.927
20153SOL     OW62465  11.047  10.049   9.387
20153SOL    HW162466  11.030  10.081   9.298
20153SOL    HW262467  11.091   9.965   9.373
20154SOL     OW62468   3.357   3.208   5.433
20154SOL    HW162469   3.394   3.227   5.519
20154SOL    HW262470   3.290   3.275   5.420
20155SOL     OW62471   0.412   9.517   5.074
20155SOL    HW162472   0.341   9.455   5.091
20155SOL    HW262473   0.417   9.570   5.153
20156SOL     OW62474   1.305   8.287   6.985
20156SOL    HW162475   1.364   8.337   7.041
20156SOL    HW262476   1.351   8.204   6.970
20157SOL     OW62477   2.759   4.076   0.324
20157SOL    HW162478   2.745   4.139   0.394
20157SOL    HW262479   2.813   4.122   0.260
20158SOL     OW62480   1.160  10.264   2.904
20158SOL    HW162481   1.065  10.263   2.895
20158SOL    HW262482   1.184  10.356   2.896
20159SOL     OW62483   8.180   0.641  10.335
20159SOL    HW162484   8.173   0.734  10.354
20159SOL    HW262485   8.261   0.633  10.284
20160SOL     OW62486   6.794   4.968   5.939
20160SOL    HW162487   6.809   4.873   5.939
20160SOL    HW262488   6.793   4.992   6.031
20161SOL     OW62489   8.816   6.426  10.060
20161SOL    HW162490   8.758   6.350  10.061
20161SOL    HW262491   8.806   6.466  10.146
20162SOL     OW62492   6.445   6.271   2.469
20162SOL    HW162493   6.472   6.306   2.384
20162SOL    HW262494   6.423   6.348   2.521
20163SOL     OW62495  10.915   8.418   1.225
20163SOL    HW162496  10.974   8.344   1.239
20163SOL    HW262497  10.848   8.384   1.165
20164SOL     OW62498   5.769   9.505   3.489
20164SOL    HW162499   5.791   9.590   3.452
20164SOL    HW262500   5.755   9.448   3.413
20165SOL     OW62501   1.973   2.044   8.234
20165SOL    HW162502   1.908   2.061   8.302
20165SOL    HW262503   1.928   2.064   8.152
20166SOL     OW62504   5.084  10.030   8.126
20166SOL    HW162505   5.153  10.038   8.192
20166SOL    HW262506   5.130  10.041   8.042
20167SOL     OW62507   9.998   9.654   7.198
20167SOL    HW162508   9.907   9.679   7.210
20167SOL    HW262509  10.011   9.580   7.257
20168SOL     OW62510   3.643   9.536  10.457
20168SOL    HW162511   3.663   9.449  10.421
20168SOL    HW262512   3.551   9.530  10.483
20169SOL     OW62513   1.913   9.920   1.664
20169SOL    HW162514   1.925   9.925   1.759
20169SOL    HW262515   1.967   9.991   1.629
20170SOL     OW62516   2.464   6.438   2.519
20170SOL    HW162517   2.399   6.372   2.543
20170SOL    HW262518   2.472   6.493   2.596
20171SOL     OW62519   5.833   8.236   7.393
20171SOL    HW162520   5.908   8.184   7.363
20171SOL    HW262521   5.872   8.318   7.423
20172SOL     OW62522   2.086  10.091   7.469
20172SOL    HW162523   2.132  10.173   7.452
20172SOL    HW262524   2.107  10.036   7.393
20173SOL     OW62525   3.746   9.286   5.733
20173SOL    HW162526   3.729   9.380   5.736
20173SOL    HW262527   3.790   9.272   5.649
20174SOL     OW62528   8.498   1.723   8.700
20174SOL    HW162529   8.499   1.674   8.617
20174SOL    HW262530   8.589   1.749   8.713
20175SOL     OW62531   2.634   9.663   9.888
20175SOL    HW162532   2.649   9.586   9.832
20175SOL    HW262533   2.547   9.694   9.863
20176SOL     OW62534   7.567   2.331   7.215
20176SOL    HW162535   7.540   2.278   7.140
20176SOL    HW262536   7.638   2.281   7.255
20177SOL     OW62537   1.981   7.237   5.395
20177SOL    HW162538   1.893   7.267   5.415
20177SOL    HW262539   1.979   7.143   5.414
20178SOL     OW62540   6.671   4.267   4.084
20178SOL    HW162541   6.733   4.322   4.036
20178SOL    HW262542   6.726   4.204   4.131
20179SOL     OW62543   5.998   7.244   3.289
20179SOL    HW162544   6.021   7.305   3.219
20179SOL    HW262545   5.925   7.193   3.253
20180SOL     OW62546   4.084   9.414   1.711
20180SOL    HW162547   4.136   9.334   1.704
20180SOL    HW262548   4.003   9.386   1.754
20181SOL     OW62549   5.608   8.264   9.493
20181SOL    HW162550   5.532   8.216   9.460
20181SOL    HW262551   5.592   8.355   9.468
20182SOL     OW62552   6.923   1.896   9.945
20182SOL    HW162553   6.937   1.929   9.856
20182SOL    HW262554   6.994   1.832   9.958
20183SOL     OW62555   2.151   6.074   6.868
20183SOL    HW162556   2.176   6.152   6.916
20183SOL    HW262557   2.234   6.038   6.836
20184SOL     OW62558   4.696   0.017   7.722
20184SOL    HW162559   4.755  -0.008   7.650
20184SOL    HW262560   4.736   0.095   7.760
20185SOL     OW62561   9.121   7.131   0.028
20185SOL    HW162562   9.204   7.144  -0.018
20185SOL    HW262563   9.146   7.100   0.115
20186SOL     OW62564   9.432   5.098   2.810
20186SOL    HW162565   9.392   5.016   2.839
20186SOL    HW262566   9.435   5.090   2.714
20187SOL     OW62567   4.226   5.145   9.526
20187SOL    HW162568   4.250   5.196   9.603
20187SOL    HW262569   4.181   5.068   9.561
20188SOL     OW62570   5.166   5.144   8.081
20188SOL    HW162571   5.241   5.199   8.060
20188SOL    HW262572   5.121   5.132   7.997
20189SOL     OW62573   3.171   8.042   8.720
20189SOL    HW162574   3.171   7.964   8.664
20189SOL    HW262575   3.261   8.075   8.715
20190SOL     OW62576   8.109   9.557   0.449
20190SOL    HW162577   8.187   9.506   0.426
20190SOL    HW262578   8.048   9.539   0.378
20191SOL     OW62579   9.452   6.360   3.844
20191SOL    HW162580   9.453   6.380   3.937
20191SOL    HW262581   9.512   6.285   3.835
20192SOL     OW62582   6.583   2.893   5.122
20192SOL    HW162583   6.518   2.893   5.052
20192SOL    HW262584   6.656   2.842   5.087
20193SOL     OW62585   4.453   2.910   8.221
20193SOL    HW162586   4.425   2.825   8.255
20193SOL    HW262587   4.545   2.916   8.245
20194SOL     OW62588   6.186   1.726  10.890
20194SOL    HW162589   6.221   1.701  10.804
20194SOL    HW262590   6.104   1.771  10.870
20195SOL     OW62591   7.853   4.840   2.623
20195SOL    HW162592   7.775   4.807   2.667
20195SOL    HW262593   7.922   4.833   2.689
20196SOL     OW62594   8.474   9.319   1.848
20196SOL    HW162595   8.562   9.347   1.875
20196SOL    HW262596   8.469   9.227   1.875
20197SOL     OW62597   5.466   5.197   9.106
20197SOL    HW162598   5.377   5.163   9.095
20197SOL    HW262599   5.454   5.290   9.121
20198SOL     OW62600   3.165   4.565   9.705
20198SOL    HW162601   3.166   4.586   9.611
20198SOL    HW262602   3.256   4.577   9.733
20199SOL     OW62603   9.009   3.270   6.904
20199SOL    HW162604   8.998   3.361   6.929
20199SOL    HW262605   9.081   3.270   6.841
20200SOL     OW62606   2.442   9.416   4.072
20200SOL    HW162607   2.526   9.423   4.027
20200SOL    HW262608   2.452   9.339   4.129
20201SOL     OW62609   2.064   4.043   8.042
20201SOL    HW162610   2.084   4.136   8.052
20201SOL    HW262611   2.026   4.036   7.954
20202SOL     OW62612   6.393   4.981   0.995
20202SOL    HW162613   6.469   4.965   1.051
20202SOL    HW262614   6.375   4.896   0.954
20203SOL     OW62615   4.845   9.729  10.772
20203SOL    HW162616   4.908   9.790  10.810
20203SOL    HW262617   4.815   9.772  10.692
20204SOL     OW62618   4.963   9.462  10.320
20204SOL    HW162619   4.881   9.413  10.321
20204SOL    HW262620   4.985   9.469  10.227
20205SOL     OW62621   4.096   8.441   5.402
20205SOL    HW162622   4.080   8.533   5.421
20205SOL    HW262623   4.187   8.438   5.371
20206SOL     OW62624   3.896   8.286   5.954
20206SOL    HW162625   3.815   8.313   5.997
20206SOL    HW262626   3.880   8.195   5.928
20207SOL     OW62627   4.848   7.639   8.650
20207SOL    HW162628   4.869   7.582   8.576
20207SOL    HW262629   4.854   7.582   8.726
20208SOL     OW62630   0.777   8.269   2.548
20208SOL    HW162631   0.780   8.177   2.522
20208SOL    HW262632   0.686   8.294   2.537
20209SOL     OW62633   1.725   8.506   6.656
20209SOL    HW162634   1.689   8.522   6.568
20209SOL    HW262635   1.813   8.470   6.639
20210SOL     OW62636   3.372   4.852   9.401
20210SOL    HW162637   3.347   4.906   9.326
20210SOL    HW262638   3.347   4.903   9.477
20211SOL     OW62639   4.359   8.314   2.039
20211SOL    HW162640   4.328   8.340   1.952
20211SOL    HW262641   4.283   8.327   2.096
20212SOL     OW62642   4.382   4.878   9.910
20212SOL    HW162643   4.390   4.863   9.815
20212SOL    HW262644   4.289   4.893   9.924
20213SOL     OW62645   3.268   6.166   8.580
20213SOL    HW162646   3.272   6.176   8.485
20213SOL    HW262647   3.230   6.248   8.611
20214SOL     OW62648   2.612   6.101   6.581
20214SOL    HW162649   2.537   6.145   6.541
20214SOL    HW262650   2.670   6.171   6.610
20215SOL     OW62651   5.854   3.001  10.376
20215SOL    HW162652   5.840   3.054  10.454
20215SOL    HW262653   5.932   2.949  10.396
20216SOL     OW62654   8.036   6.399   5.156
20216SOL    HW162655   7.966   6.455   5.123
20216SOL    HW262656   8.011   6.310   5.129
20217SOL     OW62657   6.281   4.511   3.241
20217SOL    HW162658   6.188   4.489   3.250
20217SOL    HW262659   6.281   4.599   3.203
20218SOL     OW62660   5.472   8.432   1.514
20218SOL    HW162661   5.385   8.410   1.546
20218SOL    HW262662   5.492   8.363   1.451
20219SOL     OW62663   3.288   6.426  10.869
20219SOL    HW162664   3.281   6.448  10.961
20219SOL    HW262665   3.216   6.365  10.853
20220SOL     OW62666   5.126   9.613   7.715
20220SOL    HW162667   5.158   9.638   7.801
20220SOL    HW262668   5.096   9.522   7.725
20221SOL     OW62669   6.321   9.321   6.695
20221SOL    HW162670   6.254   9.258   6.668
20221SOL    HW262671   6.379   9.271   6.752
20222SOL     OW62672   6.179   8.708   4.233
20222SOL    HW162673   6.217   8.691   4.319
20222SOL    HW262674   6.254   8.727   4.177
20223SOL     OW62675   7.723   4.477   8.548
20223SOL    HW162676   7.800   4.473   8.605
20223SOL    HW262677   7.684   4.389   8.554
20224SOL     OW62678   5.472  10.304   8.309
20224SOL    HW162679   5.487  10.297   8.403
20224SOL    HW262680   5.548  10.259   8.270
20225SOL     OW62681   2.173   8.420   8.093
20225SOL    HW162682   2.135   8.480   8.029
20225SOL    HW262683   2.216   8.353   8.039
20226SOL     OW62684   4.385   9.634   1.369
20226SOL    HW162685   4.326   9.588   1.309
20226SOL    HW262686   4.445   9.682   1.311
20227SOL     OW62687   7.317   9.374   5.070
20227SOL    HW162688   7.241   9.431   5.059
20227SOL    HW262689   7.385   9.413   5.015
20228SOL     OW62690   2.632  10.520  10.203
20228SOL    HW162691   2.553  10.550  10.248
20228SOL    HW262692   2.601  10.490  10.117
20229SOL     OW62693   4.340   5.421   9.222
20229SOL    HW162694   4.249   5.429   9.193
20229SOL    HW262695   4.368   5.511   9.239
20230SOL     OW62696   8.369   6.485  11.086
20230SOL    HW162697   8.439   6.456  11.145
20230SOL    HW262698   8.414   6.539  11.021
20231SOL     OW62699   6.140  10.500   9.644
20231SOL    HW162700   6.172  10.519   9.556
20231SOL    HW262701   6.141  10.405   9.650
20232SOL     OW62702   2.627   7.983   8.008
20232SOL    HW162703   2.656   8.062   7.962
20232SOL    HW262704   2.604   7.922   7.937
20233SOL     OW62705   0.607   9.179   3.153
20233SOL    HW162706   0.534   9.158   3.210
20233SOL    HW262707   0.571   9.239   3.088
20234SOL     OW62708   6.076   9.836   5.354
20234SOL    HW162709   6.034   9.751   5.370
20234SOL    HW262710   6.119   9.826   5.269
20235SOL     OW62711   3.292   7.796   9.298
20235SOL    HW162712   3.254   7.776   9.212
20235SOL    HW262713   3.294   7.711   9.343
20236SOL     OW62714   5.242   0.462  10.260
20236SOL    HW162715   5.274   0.418  10.181
20236SOL    HW262716   5.283   0.548  10.258
20237SOL     OW62717  10.135   8.836  10.020
20237SOL    HW162718  10.153   8.742  10.016
20237SOL    HW262719  10.132   8.856  10.113
20238SOL     OW62720   3.469   4.479   0.885
20238SOL    HW162721   3.461   4.508   0.975
20238SOL    HW262722   3.398   4.416   0.873
20239SOL     OW62723   7.842  10.126   0.718
20239SOL    HW162724   7.773  10.090   0.662
20239SOL    HW262725   7.820  10.218   0.727
20240SOL     OW62726   0.827   9.414   4.712
20240SOL    HW162727   0.897   9.467   4.673
20240SOL    HW262728   0.767   9.396   4.639
20241SOL     OW62729   1.909   2.919   0.352
20241SOL    HW162730   1.881   2.992   0.296
20241SOL    HW262731   1.993   2.947   0.388
20242SOL     OW62732   5.998   6.802   0.505
20242SOL    HW162733   5.975   6.729   0.446
20242SOL    HW262734   5.988   6.880   0.451
20243SOL     OW62735   2.330   4.495   8.507
20243SOL    HW162736   2.366   4.407   8.518
20243SOL    HW262737   2.380   4.549   8.568
20244SOL     OW62738  10.783   7.802  10.430
20244SOL    HW162739  10.834   7.755  10.496
20244SOL    HW262740  10.838   7.799  10.351
20245SOL     OW62741   7.658   7.712   9.629
20245SOL    HW162742   7.612   7.757   9.700
20245SOL    HW262743   7.751   7.719   9.652
20246SOL     OW62744   7.476   7.471  11.044
20246SOL    HW162745   7.551   7.418  11.072
20246SOL    HW262746   7.430   7.416  10.981
20247SOL     OW62747  10.286   5.874   0.627
20247SOL    HW162748  10.197   5.863   0.660
20247SOL    HW262749  10.310   5.964   0.650
20248SOL     OW62750   8.555   7.513   2.545
20248SOL    HW162751   8.467   7.480   2.528
20248SOL    HW262752   8.600   7.440   2.588
20249SOL     OW62753   1.742  10.605   3.454
20249SOL    HW162754   1.667  10.614   3.512
20249SOL    HW262755   1.720  10.532   3.397
20250SOL     OW62756   4.145   4.125   0.041
20250SOL    HW162757   4.066   4.140   0.093
20250SOL    HW262758   4.119   4.060  -0.024
20251SOL     OW62759   4.399   6.419   5.723
20251SOL    HW162760   4.403   6.420   5.627
20251SOL    HW262761   4.445   6.339   5.748
20252SOL     OW62762   1.887   3.072   5.970
20252SOL    HW162763   1.979   3.052   5.987
20252SOL    HW262764   1.870   3.036   5.883
20253SOL     OW62765   9.488  10.497  10.740
20253SOL    HW162766   9.437  10.516  10.661
20253SOL    HW262767   9.492  10.401  10.743
20254SOL     OW62768   7.283   9.940  10.076
20254SOL    HW162769   7.250  10.030  10.077
20254SOL    HW262770   7.218   9.891  10.026
20255SOL     OW62771   6.165  10.683   8.433
20255SOL    HW162772   6.238  10.742   8.450
20255SOL    HW262773   6.166  10.621   8.506
20256SOL     OW62774   9.036   9.677   0.291
20256SOL    HW162775   9.055   9.762   0.252
20256SOL    HW262776   9.055   9.688   0.384
20257SOL     OW62777  10.905   5.840   8.774
20257SOL    HW162778  10.947   5.917   8.736
20257SOL    HW262779  10.962   5.767   8.749
20258SOL     OW62780   8.580  10.493   8.165
20258SOL    HW162781   8.662  10.447   8.182
20258SOL    HW262782   8.537  10.442   8.096
20259SOL     OW62783   8.203   2.048   2.605
20259SOL    HW162784   8.183   1.961   2.639
20259SOL    HW262785   8.291   2.066   2.637
20260SOL     OW62786   1.033   0.224  10.121
20260SOL    HW162787   1.073   0.138  10.137
20260SOL    HW262788   1.107   0.285  10.124
20261SOL     OW62789   1.561   0.451   7.302
20261SOL    HW162790   1.548   0.520   7.237
20261SOL    HW262791   1.621   0.488   7.366
20262SOL     OW62792   2.383   6.543   7.198
20262SOL    HW162793   2.457   6.486   7.220
20262SOL    HW262794   2.306   6.486   7.202
20263SOL     OW62795   1.733   9.104   7.392
20263SOL    HW162796   1.792   9.170   7.356
20263SOL    HW262797   1.702   9.141   7.474
20264SOL     OW62798   8.085   1.064   3.858
20264SOL    HW162799   8.012   1.043   3.799
20264SOL    HW262800   8.110   1.153   3.834
20265SOL     OW62801  10.437   0.357   7.068
20265SOL    HW162802  10.448   0.303   7.146
20265SOL    HW262803  10.517   0.342   7.016
20266SOL     OW62804   0.101   1.656   4.026
20266SOL    HW162805   0.067   1.655   3.936
20266SOL    HW262806   0.158   1.579   4.030
20267SOL     OW62807   8.189  10.315   9.105
20267SOL    HW162808   8.216  10.360   9.025
20267SOL    HW262809   8.152  10.232   9.074
20268SOL     OW62810   5.400   3.423   0.797
20268SOL    HW162811   5.435   3.511   0.787
20268SOL    HW262812   5.348   3.427   0.877
20269SOL     OW62813   8.152  10.656   5.787
20269SOL    HW162814   8.235  10.636   5.830
20269SOL    HW262815   8.175  10.664   5.694
20270SOL     OW62816   9.334   9.061  10.757
20270SOL    HW162817   9.286   9.052  10.674
20270SOL    HW262818   9.426   9.064  10.731
20271SOL     OW62819   8.842   9.800   6.025
20271SOL    HW162820   8.848   9.863   5.953
20271SOL    HW262821   8.933   9.787   6.053
20272SOL     OW62822  10.660   2.359   6.304
20272SOL    HW162823  10.590   2.406   6.259
20272SOL    HW262824  10.736   2.416   6.296
20273SOL     OW62825   3.226   7.743   1.195
20273SOL    HW162826   3.301   7.686   1.211
20273SOL    HW262827   3.217   7.745   1.099
20274SOL     OW62828   8.122   5.418   5.244
20274SOL    HW162829   8.061   5.406   5.317
20274SOL    HW262830   8.078   5.478   5.185
20275SOL     OW62831   5.668   8.427   7.777
20275SOL    HW162832   5.710   8.342   7.791
20275SOL    HW262833   5.644   8.457   7.864
20276SOL     OW62834   7.538   8.833   6.231
20276SOL    HW162835   7.547   8.864   6.321
20276SOL    HW262836   7.606   8.879   6.182
20277SOL     OW62837   2.378  11.039   5.686
20277SOL    HW162838   2.304  10.996   5.729
20277SOL    HW262839   2.435  11.067   5.758
20278SOL     OW62840   6.982   2.874   6.574
20278SOL    HW162841   6.944   2.870   6.486
20278SOL    HW262842   6.941   2.949   6.615
20279SOL     OW62843   6.489  10.032   8.500
20279SOL    HW162844   6.497   9.939   8.521
20279SOL    HW262845   6.572  10.054   8.457
20280SOL     OW62846   5.218   9.351   0.751
20280SOL    HW162847   5.218   9.442   0.779
20280SOL    HW262848   5.125   9.329   0.742
20281SOL     OW62849   8.187   9.726   2.516
20281SOL    HW162850   8.221   9.648   2.560
20281SOL    HW262851   8.265   9.776   2.492
20282SOL     OW62852   9.812   7.775   5.013
20282SOL    HW162853   9.830   7.868   4.999
20282SOL    HW262854   9.894   7.731   4.989
20283SOL     OW62855   4.625  10.203   6.109
20283SOL    HW162856   4.573  10.233   6.034
20283SOL    HW262857   4.645  10.111   6.089
20284SOL     OW62858  11.038   3.775   0.071
20284SOL    HW162859  11.044   3.796  -0.022
20284SOL    HW262860  10.980   3.699   0.075
20285SOL     OW62861  10.699   8.059  10.441
20285SOL    HW162862  10.736   7.971  10.435
20285SOL    HW262863  10.646   8.057  10.520
20286SOL     OW62864   2.123   8.582   4.503
20286SOL    HW162865   2.173   8.500   4.495
20286SOL    HW262866   2.185   8.650   4.477
20287SOL     OW62867   8.220   0.824   8.580
20287SOL    HW162868   8.250   0.790   8.664
20287SOL    HW262869   8.204   0.745   8.527
20288SOL     OW62870   3.600   7.576   2.942
20288SOL    HW162871   3.664   7.623   2.995
20288SOL    HW262872   3.545   7.530   3.005
20289SOL     OW62873   1.412   7.314   3.282
20289SOL    HW162874   1.493   7.273   3.252
20289SOL    HW262875   1.379   7.255   3.350
20290SOL     OW62876   7.024   4.304   6.591
20290SOL    HW162877   7.012   4.365   6.663
20290SOL    HW262878   7.075   4.352   6.526
20291SOL     OW62879   7.847   8.796   7.916
20291SOL    HW162880   7.942   8.804   7.906
20291SOL    HW262881   7.828   8.840   7.998
20292SOL     OW62882   5.035   6.040  10.374
20292SOL    HW162883   5.044   5.964  10.431
20292SOL    HW262884   5.107   6.098  10.399
20293SOL     OW62885   8.841   6.980   7.483
20293SOL    HW162886   8.906   6.910   7.488
20293SOL    HW262887   8.860   7.024   7.400
20294SOL     OW62888  10.656   4.292   0.875
20294SOL    HW162889  10.730   4.333   0.830
20294SOL    HW262890  10.584   4.355   0.867
20295SOL     OW62891   7.734   9.097   1.142
20295SOL    HW162892   7.769   9.010   1.162
20295SOL    HW262893   7.641   9.090   1.162
20296SOL     OW62894  10.011   0.820   2.416
20296SOL    HW162895  10.044   0.876   2.345
20296SOL    HW262896  10.034   0.866   2.496
20297SOL     OW62897   1.651   5.128   7.650
20297SOL    HW162898   1.632   5.118   7.556
20297SOL    HW262899   1.571   5.166   7.687
20298SOL     OW62900   5.116   8.140   9.929
20298SOL    HW162901   5.141   8.056   9.968
20298SOL    HW262902   5.054   8.178   9.991
20299SOL     OW62903   8.981   4.111   6.332
20299SOL    HW162904   9.015   4.129   6.244
20299SOL    HW262905   8.891   4.144   6.330
20300SOL     OW62906   4.968   8.189   7.270
20300SOL    HW162907   5.029   8.248   7.314
20300SOL    HW262908   4.926   8.140   7.341
20301SOL     OW62909   7.828   3.352   7.428
20301SOL    HW162910   7.897   3.340   7.362
20301SOL    HW262911   7.806   3.445   7.423
20302SOL     OW62912   3.982   8.169   0.313
20302SOL    HW162913   4.054   8.145   0.255
20302SOL    HW262914   4.018   8.161   0.401
20303SOL     OW62915   4.790   8.233   9.913
20303SOL    HW162916   4.710   8.259   9.958
20303SOL    HW262917   4.852   8.304   9.929
20304SOL     OW62918   2.676   9.486   5.099
20304SOL    HW162919   2.728   9.559   5.131
20304SOL    HW262920   2.586   9.509   5.121
20305SOL     OW62921   8.696   6.754  10.176
20305SOL    HW162922   8.707   6.803  10.094
20305SOL    HW262923   8.785   6.740  10.207
20306SOL     OW62924  10.378   5.291   9.017
20306SOL    HW162925  10.357   5.199   9.034
20306SOL    HW262926  10.416   5.322   9.099
20307SOL     OW62927   0.545   7.863   5.118
20307SOL    HW162928   0.494   7.782   5.121
20307SOL    HW262929   0.484   7.928   5.084
20308SOL     OW62930   4.855   8.469   3.551
20308SOL    HW162931   4.857   8.375   3.570
20308SOL    HW262932   4.774   8.482   3.502
20309SOL     OW62933   4.595   7.783   1.284
20309SOL    HW162934   4.563   7.695   1.305
20309SOL    HW262935   4.518   7.839   1.290
20310SOL     OW62936   5.915   1.603   9.024
20310SOL    HW162937   5.841   1.652   9.059
20310SOL    HW262938   5.876   1.522   8.990
20311SOL     OW62939   1.641   1.347   6.564
20311SOL    HW162940   1.719   1.401   6.571
20311SOL    HW262941   1.576   1.390   6.619
20312SOL     OW62942  10.227   6.202   7.459
20312SOL    HW162943  10.314   6.227   7.429
20312SOL    HW262944  10.227   6.106   7.457
20313SOL     OW62945   3.174   8.944  10.842
20313SOL    HW162946   3.105   8.930  10.777
20313SOL    HW262947   3.220   8.860  10.846
20314SOL     OW62948   3.104   6.897   7.792
20314SOL    HW162949   3.175   6.843   7.827
20314SOL    HW262950   3.131   6.987   7.811
20315SOL     OW62951   6.872   0.210   9.288
20315SOL    HW162952   6.853   0.157   9.210
20315SOL    HW262953   6.967   0.223   9.285
20316SOL     OW62954   5.337   0.599   7.227
20316SOL    HW162955   5.425   0.607   7.189
20316SOL    HW262956   5.319   0.505   7.226
20317SOL     OW62957   8.548   1.360   6.180
20317SOL    HW162958   8.590   1.397   6.102
20317SOL    HW262959   8.574   1.268   6.180
20318SOL     OW62960   8.950   7.233   0.751
20318SOL    HW162961   8.876   7.282   0.787
20318SOL    HW262962   9.027   7.282   0.780
20319SOL     OW62963   3.594   2.223   3.898
20319SOL    HW162964   3.668   2.274   3.864
20319SOL    HW262965   3.623   2.195   3.985
20320SOL     OW62966  10.850   6.891   6.612
20320SOL    HW162967  10.924   6.938   6.573
20320SOL    HW262968  10.783   6.892   6.544
20321SOL     OW62969  10.877   0.629   7.514
20321SOL    HW162970  10.893   0.639   7.420
20321SOL    HW262971  10.951   0.674   7.555
20322SOL     OW62972   4.458   7.440   4.312
20322SOL    HW162973   4.397   7.373   4.281
20322SOL    HW262974   4.509   7.396   4.380
20323SOL     OW62975  10.915   7.914   1.048
20323SOL    HW162976  10.853   7.980   1.077
20323SOL    HW262977  10.881   7.884   0.963
20324SOL     OW62978   4.823   9.916   2.159
20324SOL    HW162979   4.896   9.859   2.133
20324SOL    HW262980   4.746   9.874   2.120
20325SOL     OW62981   6.251   5.088   1.891
20325SOL    HW162982   6.293   5.101   1.806
20325SOL    HW262983   6.271   4.997   1.914
20326SOL     OW62984   0.191  10.598   3.649
20326SOL    HW162985   0.208  10.504   3.652
20326SOL    HW262986   0.263  10.634   3.597
20327SOL     OW62987   5.784  10.285   5.586
20327SOL    HW162988   5.817  10.222   5.521
20327SOL    HW262989   5.849  10.284   5.656
20328SOL     OW62990  10.028   2.552   7.272
20328SOL    HW162991  10.078   2.596   7.341
20328SOL    HW262992   9.942   2.593   7.275
20329SOL     OW62993   7.458   8.411   4.038
20329SOL    HW162994   7.390   8.357   4.079
20329SOL    HW262995   7.537   8.357   4.042
20330SOL     OW62996   3.852   0.432   8.978
20330SOL    HW162997   3.803   0.438   8.896
20330SOL    HW262998   3.942   0.413   8.950
20331SOL     OW62999   7.764   7.724   5.745
20331SOL    HW163000   7.813   7.758   5.670
20331SOL    HW263001   7.695   7.671   5.705
20332SOL     OW63002  10.427   9.493  10.846
20332SOL    HW163003  10.390   9.406  10.861
20332SOL    HW263004  10.354   9.553  10.861
20333SOL     OW63005   7.506   0.940   9.948
20333SOL    HW163006   7.426   0.981   9.980
20333SOL    HW263007   7.476   0.858   9.909
20334SOL     OW63008   2.671   9.584   7.544
20334SOL    HW163009   2.690   9.545   7.458
20334SOL    HW263010   2.578   9.607   7.540
20335SOL     OW63011   9.146   7.268   9.637
20335SOL    HW163012   9.082   7.333   9.609
20335SOL    HW263013   9.129   7.256   9.730
20336SOL     OW63014   5.121   2.265   7.894
20336SOL    HW163015   5.210   2.300   7.884
20336SOL    HW263016   5.127   2.207   7.970
20337SOL     OW63017   1.920   8.986   2.421
20337SOL    HW163018   1.836   8.959   2.384
20337SOL    HW263019   1.979   8.913   2.400
20338SOL     OW63020   7.564   9.901   0.079
20338SOL    HW163021   7.487   9.847   0.095
20338SOL    HW263022   7.638   9.845   0.104
20339SOL     OW63023   3.447   8.687   7.960
20339SOL    HW163024   3.468   8.711   8.050
20339SOL    HW263025   3.361   8.644   7.965
20340SOL     OW63026   5.543   5.852   1.450
20340SOL    HW163027   5.620   5.905   1.428
20340SOL    HW263028   5.542   5.849   1.545
20341SOL     OW63029   2.020   1.029   4.379
20341SOL    HW163030   1.979   1.101   4.426
20341SOL    HW263031   1.995   1.042   4.287
20342SOL     OW63032   1.166   9.682   9.602
20342SOL    HW163033   1.115   9.633   9.538
20342SOL    HW263034   1.111   9.685   9.680
20343SOL     OW63035   7.397   9.728   7.730
20343SOL    HW163036   7.395   9.715   7.635
20343SOL    HW263037   7.317   9.686   7.761
20344SOL     OW63038   1.120   6.918   2.421
20344SOL    HW163039   1.213   6.919   2.443
20344SOL    HW263040   1.093   7.010   2.424
20345SOL     OW63041   9.467   5.051   0.062
20345SOL    HW163042   9.418   4.990   0.118
20345SOL    HW263043   9.517   5.105   0.124
20346SOL     OW63044  10.466  11.030   9.249
20346SOL    HW163045  10.451  11.094   9.179
20346SOL    HW263046  10.561  11.017   9.250
20347SOL     OW63047   4.308   6.192   6.173
20347SOL    HW163048   4.256   6.118   6.140
20347SOL    HW263049   4.334   6.165   6.261
20348SOL     OW63050   2.928   4.227   0.142
20348SOL    HW163051   2.997   4.223   0.076
20348SOL    HW263052   2.909   4.320   0.151
20349SOL     OW63053   8.378   1.223   5.276
20349SOL    HW163054   8.419   1.144   5.239
20349SOL    HW263055   8.285   1.201   5.281
20350SOL     OW63056   2.686   1.806   9.216
20350SOL    HW163057   2.739   1.816   9.137
20350SOL    HW263058   2.699   1.887   9.264
20351SOL     OW63059   5.799   9.322   8.948
20351SOL    HW163060   5.870   9.380   8.922
20351SOL    HW263061   5.841   9.237   8.961
20352SOL     OW63062   5.641   7.403   1.502
20352SOL    HW163063   5.631   7.459   1.425
20352SOL    HW263064   5.551   7.382   1.528
20353SOL     OW63065   1.686   8.294   9.709
20353SOL    HW163066   1.665   8.303   9.616
20353SOL    HW263067   1.698   8.200   9.722
20354SOL     OW63068   7.298   6.255   6.256
20354SOL    HW163069   7.356   6.303   6.196
20354SOL    HW263070   7.223   6.230   6.201
20355SOL     OW63071   4.230   8.957   0.392
20355SOL    HW163072   4.304   9.001   0.433
20355SOL    HW263073   4.230   8.869   0.430
20356SOL     OW63074   2.558  10.959  10.247
20356SOL    HW163075   2.463  10.951  10.242
20356SOL    HW263076   2.573  11.052  10.262
20357SOL     OW63077  10.160  10.048   5.863
20357SOL    HW163078  10.254  10.067   5.855
20357SOL    HW263079  10.144  10.043   5.957
20358SOL     OW63080  10.923   0.101   7.967
20358SOL    HW163081  11.006   0.145   7.985
20358SOL    HW263082  10.948   0.021   7.921
20359SOL     OW63083   5.341   6.781   3.672
20359SOL    HW163084   5.275   6.799   3.606
20359SOL    HW263085   5.314   6.697   3.710
20360SOL     OW63086   4.927   4.760   7.941
20360SOL    HW163087   4.984   4.805   7.879
20360SOL    HW263088   4.871   4.828   7.977
20361SOL     OW63089   2.168   9.743  10.811
20361SOL    HW163090   2.128   9.738  10.724
20361SOL    HW263091   2.183   9.651  10.835
20362SOL     OW63092   6.599  10.501   8.140
20362SOL    HW163093   6.590  10.444   8.216
20362SOL    HW263094   6.692  10.499   8.119
20363SOL     OW63095   4.769   2.897  10.929
20363SOL    HW163096   4.852   2.930  10.895
20363SOL    HW263097   4.794   2.835  10.998
20364SOL     OW63098   3.143   7.817   7.778
20364SOL    HW163099   3.174   7.886   7.719
20364SOL    HW263100   3.155   7.852   7.866
20365SOL     OW63101   9.567   9.169   7.483
20365SOL    HW163102   9.512   9.115   7.426
20365SOL    HW263103   9.567   9.256   7.442
20366SOL     OW63104   2.215   6.391   5.085
20366SOL    HW163105   2.204   6.466   5.143
20366SOL    HW263106   2.132   6.384   5.038
20367SOL     OW63107   9.365   5.705   7.075
20367SOL    HW163108   9.413   5.640   7.023
20367SOL    HW263109   9.362   5.668   7.163
20368SOL     OW63110   1.790   0.264   9.148
20368SOL    HW163111   1.757   0.190   9.096
20368SOL    HW263112   1.885   0.256   9.142
20369SOL     OW63113   5.043   0.688   8.655
20369SOL    HW163114   4.948   0.679   8.667
20369SOL    HW263115   5.078   0.603   8.681
20370SOL     OW63116   2.691   0.247   2.158
20370SOL    HW163117   2.597   0.260   2.147
20370SOL    HW263118   2.712   0.289   2.241
20371SOL     OW63119   6.519   8.795   1.394
20371SOL    HW163120   6.428   8.769   1.382
20371SOL    HW263121   6.552   8.735   1.461
20372SOL     OW63122   1.316   9.478   7.976
20372SOL    HW163123   1.276   9.421   8.042
20372SOL    HW263124   1.407   9.486   8.004
20373SOL     OW63125   2.901  10.879  10.241
20373SOL    HW163126   2.814  10.866  10.204
20373SOL    HW263127   2.912  10.974  10.242
20374SOL     OW63128   2.164   6.673   1.969
20374SOL    HW163129   2.220   6.604   2.005
20374SOL    HW263130   2.079   6.631   1.959
20375SOL     OW63131   3.287   1.144   3.305
20375SOL    HW163132   3.238   1.166   3.226
20375SOL    HW263133   3.378   1.139   3.276
20376SOL     OW63134   0.881   9.775   2.042
20376SOL    HW163135   0.930   9.728   2.109
20376SOL    HW263136   0.946   9.792   1.973
20377SOL     OW63137   7.386   7.306   5.260
20377SOL    HW163138   7.446   7.232   5.272
20377SOL    HW263139   7.301   7.265   5.243
20378SOL     OW63140   1.323  11.037   2.080
20378SOL    HW163141   1.354  10.959   2.034
20378SOL    HW263142   1.331  11.107   2.015
20379SOL     OW63143   0.067   1.224   9.023
20379SOL    HW163144   0.021   1.233   9.106
20379SOL    HW263145   0.001   1.189   8.963
20380SOL     OW63146   3.830   2.656   2.869
20380SOL    HW163147   3.795   2.744   2.857
20380SOL    HW263148   3.861   2.630   2.782
20381SOL     OW63149   4.238   1.169   7.052
20381SOL    HW163150   4.210   1.259   7.035
20381SOL    HW263151   4.244   1.129   6.965
20382SOL     OW63152   2.779   5.405   3.877
20382SOL    HW163153   2.689   5.433   3.863
20382SOL    HW263154   2.821   5.480   3.919
20383SOL     OW63155   4.039  10.514   7.390
20383SOL    HW163156   3.986  10.448   7.345
20383SOL    HW263157   4.049  10.481   7.479
20384SOL     OW63158  11.028   9.929   4.880
20384SOL    HW163159  11.113   9.886   4.870
20384SOL    HW263160  10.975   9.867   4.930
20385SOL     OW63161   9.146   6.043  10.044
20385SOL    HW163162   9.140   5.952  10.075
20385SOL    HW263163   9.058   6.078  10.056
20386SOL     OW63164   3.352  11.042   7.623
20386SOL    HW163165   3.340  11.109   7.556
20386SOL    HW263166   3.409  11.083   7.688
20387SOL     OW63167   3.414   2.395   9.415
20387SOL    HW163168   3.366   2.333   9.360
20387SOL    HW263169   3.355   2.414   9.487
20388SOL     OW63170   5.923  10.623   5.385
20388SOL    HW163171   5.950  10.715   5.385
20388SOL    HW263172   5.829  10.625   5.400
20389SOL     OW63173   6.171  10.466   7.968
20389SOL    HW163174   6.216  10.389   7.932
20389SOL    HW263175   6.172  10.530   7.896
20390SOL     OW63176   6.010   2.381   7.946
20390SOL    HW163177   5.954   2.366   7.869
20390SOL    HW263178   6.008   2.475   7.959
20391SOL     OW63179   6.125   8.399   9.751
20391SOL    HW163180   6.079   8.482   9.758
20391SOL    HW263181   6.152   8.394   9.659
20392SOL     OW63182   5.648   9.943   7.736
20392SOL    HW163183   5.568   9.992   7.718
20392SOL    HW263184   5.697   9.946   7.653
20393SOL     OW63185   0.088   5.555   8.866
20393SOL    HW163186   0.179   5.578   8.847
20393SOL    HW263187   0.040   5.578   8.786
20394SOL     OW63188   3.458   1.724   6.682
20394SOL    HW163189   3.391   1.766   6.735
20394SOL    HW263190   3.529   1.705   6.743
20395SOL     OW63191   6.952  10.144   5.130
20395SOL    HW163192   7.020  10.139   5.063
20395SOL    HW263193   6.980  10.082   5.197
20396SOL     OW63194   2.402   3.532   7.948
20396SOL    HW163195   2.357   3.598   7.895
20396SOL    HW263196   2.437   3.580   8.022
20397SOL     OW63197   1.130   4.483   7.663
20397SOL    HW163198   1.054   4.426   7.672
20397SOL    HW263199   1.195   4.429   7.617
20398SOL     OW63200   2.883   5.475   5.559
20398SOL    HW163201   2.934   5.543   5.603
20398SOL    HW263202   2.795   5.511   5.552
20399SOL     OW63203   6.568   4.783   1.196
20399SOL    HW163204   6.530   4.724   1.130
20399SOL    HW263205   6.546   4.742   1.280
20400SOL     OW63206   2.771   4.093   9.485
20400SOL    HW163207   2.769   4.174   9.536
20400SOL    HW263208   2.770   4.122   9.393
20401SOL     OW63209   5.553   1.460   9.251
20401SOL    HW163210   5.554   1.413   9.334
20401SOL    HW263211   5.467   1.440   9.213
20402SOL     OW63212   0.634   6.352   1.133
20402SOL    HW163213   0.726   6.345   1.160
20402SOL    HW263214   0.584   6.328   1.211
20403SOL     OW63215   2.508  10.433   8.364
20403SOL    HW163216   2.572  10.435   8.435
20403SOL    HW263217   2.473  10.344   8.366
20404SOL     OW63218   2.152   7.879   9.878
20404SOL    HW163219   2.154   7.971   9.852
20404SOL    HW263220   2.237   7.845   9.851
20405SOL     OW63221   4.322   8.667  10.127
20405SOL    HW163222   4.248   8.703  10.175
20405SOL    HW263223   4.312   8.701  10.038
20406SOL     OW63224   5.111   7.807   1.853
20406SOL    HW163225   5.097   7.716   1.880
20406SOL    HW263226   5.085   7.809   1.760
20407SOL     OW63227   8.958   6.782  10.356
20407SOL    HW163228   9.025   6.827  10.305
20407SOL    HW263229   8.987   6.789  10.446
20408SOL     OW63230   8.623   9.887   4.640
20408SOL    HW163231   8.591   9.895   4.550
20408SOL    HW263232   8.577   9.810   4.674
20409SOL     OW63233  10.092   2.209   7.713
20409SOL    HW163234  10.126   2.279   7.768
20409SOL    HW263235  10.018   2.248   7.667
20410SOL     OW63236   7.295  10.501   8.195
20410SOL    HW163237   7.213  10.538   8.227
20410SOL    HW263238   7.311  10.547   8.112
20411SOL     OW63239   6.121   6.123   4.358
20411SOL    HW163240   6.151   6.062   4.425
20411SOL    HW263241   6.166   6.205   4.378
20412SOL     OW63242   1.905   0.613   0.953
20412SOL    HW163243   1.857   0.676   0.899
20412SOL    HW263244   1.996   0.619   0.923
20413SOL     OW63245   8.951   6.649   5.544
20413SOL    HW163246   9.034   6.626   5.586
20413SOL    HW263247   8.974   6.659   5.451
20414SOL     OW63248   1.145   9.125   4.328
20414SOL    HW163249   1.196   9.053   4.290
20414SOL    HW263250   1.088   9.154   4.257
20415SOL     OW63251   3.674   4.278   5.145
20415SOL    HW163252   3.634   4.191   5.139
20415SOL    HW263253   3.680   4.307   5.054
20416SOL     OW63254   4.305   5.845   0.438
20416SOL    HW163255   4.250   5.885   0.504
20416SOL    HW263256   4.297   5.751   0.454
20417SOL     OW63257   7.272   0.496   4.175
20417SOL    HW163258   7.340   0.519   4.238
20417SOL    HW263259   7.254   0.403   4.192
20418SOL     OW63260   3.549   9.790   6.058
20418SOL    HW163261   3.595   9.706   6.056
20418SOL    HW263262   3.465   9.770   6.098
20419SOL     OW63263   3.303  10.481   8.572
20419SOL    HW163264   3.237  10.522   8.627
20419SOL    HW263265   3.374  10.545   8.568
20420SOL     OW63266   6.316   3.778   2.187
20420SOL    HW163267   6.263   3.814   2.258
20420SOL    HW263268   6.357   3.700   2.225
20421SOL     OW63269   3.592   6.195   7.730
20421SOL    HW163270   3.651   6.122   7.709
20421SOL    HW263271   3.650   6.269   7.744
20422SOL     OW63272   8.161  10.151   4.488
20422SOL    HW163273   8.123  10.063   4.480
20422SOL    HW263274   8.149  10.189   4.401
20423SOL     OW63275   7.260   8.267  10.917
20423SOL    HW163276   7.227   8.193  10.968
20423SOL    HW263277   7.217   8.343  10.955
20424SOL     OW63278   1.042   9.075   9.634
20424SOL    HW163279   0.991   9.156   9.631
20424SOL    HW263280   1.056   9.058   9.727
20425SOL     OW63281   5.302   4.101   9.487
20425SOL    HW163282   5.319   4.195   9.479
20425SOL    HW263283   5.384   4.064   9.521
20426SOL     OW63284   4.227   3.344  11.030
20426SOL    HW163285   4.265   3.408  10.970
20426SOL    HW263286   4.197   3.273  10.972
20427SOL     OW63287   9.518   8.457   8.685
20427SOL    HW163288   9.556   8.383   8.637
20427SOL    HW263289   9.425   8.454   8.664
20428SOL     OW63290  10.446   3.679   6.551
20428SOL    HW163291  10.410   3.639   6.472
20428SOL    HW263292  10.464   3.769   6.526
20429SOL     OW63293   8.492   7.831   7.970
20429SOL    HW163294   8.397   7.838   7.971
20429SOL    HW263295   8.516   7.821   8.062
20430SOL     OW63296   4.150   0.736   5.915
20430SOL    HW163297   4.237   0.772   5.896
20430SOL    HW263298   4.166   0.643   5.933
20431SOL     OW63299   1.911   9.443   1.861
20431SOL    HW163300   1.999   9.479   1.849
20431SOL    HW263301   1.923   9.348   1.855
20432SOL     OW63302   7.695   0.441   6.796
20432SOL    HW163303   7.761   0.396   6.849
20432SOL    HW263304   7.708   0.534   6.815
20433SOL     OW63305   7.576   8.363   9.800
20433SOL    HW163306   7.591   8.302   9.872
20433SOL    HW263307   7.661   8.404   9.786
20434SOL     OW63308   4.827   7.583   5.763
20434SOL    HW163309   4.825   7.667   5.718
20434SOL    HW263310   4.735   7.559   5.772
20435SOL     OW63311   8.356  11.020  10.685
20435SOL    HW163312   8.393  11.077  10.617
20435SOL    HW263313   8.268  10.999  10.653
20436SOL     OW63314   5.803   8.780   6.079
20436SOL    HW163315   5.840   8.769   6.166
20436SOL    HW263316   5.869   8.830   6.031
20437SOL     OW63317   2.547   2.644   0.640
20437SOL    HW163318   2.459   2.642   0.602
20437SOL    HW263319   2.533   2.623   0.732
20438SOL     OW63320   2.635   6.645   9.714
20438SOL    HW163321   2.705   6.592   9.753
20438SOL    HW263322   2.673   6.732   9.705
20439SOL     OW63323   5.848   6.465   7.474
20439SOL    HW163324   5.931   6.417   7.472
20439SOL    HW263325   5.804   6.433   7.553
20440SOL     OW63326   8.931   1.485   9.264
20440SOL    HW163327   8.859   1.538   9.297
20440SOL    HW263328   8.927   1.404   9.315
20441SOL     OW63329   8.954   9.519   7.524
20441SOL    HW163330   8.862   9.498   7.509
20441SOL    HW263331   8.968   9.503   7.617
20442SOL     OW63332   4.362  10.175   8.891
20442SOL    HW163333   4.412  10.214   8.819
20442SOL    HW263334   4.387  10.226   8.968
20443SOL     OW63335   0.387  10.592   4.289
20443SOL    HW163336   0.305  10.609   4.242
20443SOL    HW263337   0.377  10.503   4.323
20444SOL     OW63338   6.246   6.710  10.268
20444SOL    HW163339   6.203   6.790  10.296
20444SOL    HW263340   6.339   6.726  10.282
20445SOL     OW63341   1.167   8.578   8.879
20445SOL    HW163342   1.180   8.506   8.817
20445SOL    HW263343   1.254   8.617   8.889
20446SOL     OW63344   2.510   2.547  10.566
20446SOL    HW163345   2.504   2.518  10.657
20446SOL    HW263346   2.457   2.626  10.562
20447SOL     OW63347   3.450   2.932   0.353
20447SOL    HW163348   3.467   2.930   0.259
20447SOL    HW263349   3.529   2.971   0.391
20448SOL     OW63350   6.956   2.245   7.931
20448SOL    HW163351   6.935   2.251   8.024
20448SOL    HW263352   7.051   2.256   7.927
20449SOL     OW63353   6.153  10.455   2.093
20449SOL    HW163354   6.206  10.380   2.065
20449SOL    HW263355   6.086  10.463   2.025
20450SOL     OW63356   5.311   8.953   5.326
20450SOL    HW163357   5.237   8.930   5.381
20450SOL    HW263358   5.388   8.929   5.378
20451SOL     OW63359  10.061   6.704   8.573
20451SOL    HW163360  10.058   6.760   8.495
20451SOL    HW263361  10.078   6.764   8.645
20452SOL     OW63362   0.973  10.547  10.358
20452SOL    HW163363   0.967  10.543  10.453
20452SOL    HW263364   0.883  10.562  10.329
20453SOL     OW63365   6.018   6.184   9.236
20453SOL    HW163366   6.094   6.242   9.230
20453SOL    HW263367   6.016   6.138   9.152
20454SOL     OW63368   2.104   7.375   9.998
20454SOL    HW163369   2.029   7.429   9.972
20454SOL    HW263370   2.143   7.422  10.072
20455SOL     OW63371   1.121   9.372   9.357
20455SOL    HW163372   1.079   9.442   9.407
20455SOL    HW263373   1.176   9.326   9.420
20456SOL     OW63374   2.316   8.880  10.982
20456SOL    HW163375   2.353   8.956  10.937
20456SOL    HW263376   2.391   8.838  11.025
20457SOL     OW63377   3.828  10.051   8.532
20457SOL    HW163378   3.865  10.008   8.609
20457SOL    HW263379   3.869  10.006   8.458
20458SOL     OW63380   9.892  10.516  10.140
20458SOL    HW163381   9.803  10.547  10.158
20458SOL    HW263382   9.941  10.595  10.118
20459SOL     OW63383   4.167   5.334   4.247
20459SOL    HW163384   4.137   5.390   4.318
20459SOL    HW263385   4.093   5.275   4.230
20460SOL     OW63386   4.178   9.461  10.630
20460SOL    HW163387   4.227   9.532  10.672
20460SOL    HW263388   4.087   9.491  10.629
20461SOL     OW63389   1.834   0.995   6.921
20461SOL    HW163390   1.821   1.009   7.014
20461SOL    HW263391   1.881   1.072   6.891
20462SOL     OW63392   3.615   1.391   5.980
20462SOL    HW163393   3.660   1.314   6.015
20462SOL    HW263394   3.635   1.461   6.042
20463SOL     OW63395   8.930   4.280   9.833
20463SOL    HW163396   8.965   4.264   9.745
20463SOL    HW263397   9.003   4.318   9.881
20464SOL     OW63398   5.476   1.767   9.614
20464SOL    HW163399   5.560   1.751   9.571
20464SOL    HW263400   5.420   1.801   9.544
20465SOL     OW63401   3.993   5.672   0.119
20465SOL    HW163402   3.972   5.640   0.207
20465SOL    HW263403   4.076   5.719   0.130
20466SOL     OW63404   4.081   3.063  10.588
20466SOL    HW163405   4.177   3.061  10.586
20466SOL    HW263406   4.058   3.039  10.677
20467SOL     OW63407   2.105   1.042   6.709
20467SOL    HW163408   2.068   1.095   6.638
20467SOL    HW263409   2.069   0.954   6.694
20468SOL     OW63410   2.355   6.967   1.892
20468SOL    HW163411   2.382   7.038   1.834
20468SOL    HW263412   2.333   6.895   1.832
20469SOL     OW63413   3.199   7.095   4.650
20469SOL    HW163414   3.286   7.131   4.631
20469SOL    HW263415   3.214   7.031   4.720
20470SOL     OW63416   0.498   8.319   2.553
20470SOL    HW163417   0.450   8.310   2.470
20470SOL    HW263418   0.489   8.411   2.576
20471SOL     OW63419   0.027   7.266   9.151
20471SOL    HW163420  -0.052   7.254   9.204
20471SOL    HW263421   0.088   7.200   9.184
20472SOL     OW63422   1.014   8.584   3.223
20472SOL    HW163423   0.938   8.641   3.211
20472SOL    HW263424   1.018   8.532   3.142
20473SOL     OW63425   1.552   2.511   5.606
20473SOL    HW163426   1.460   2.505   5.581
20473SOL    HW263427   1.600   2.484   5.527
20474SOL     OW63428   7.402   5.741   0.027
20474SOL    HW163429   7.434   5.817  -0.021
20474SOL    HW263430   7.377   5.775   0.113
20475SOL     OW63431   3.006   5.355   3.210
20475SOL    HW163432   2.997   5.361   3.115
20475SOL    HW263433   2.925   5.313   3.239
20476SOL     OW63434   5.833   9.208   0.794
20476SOL    HW163435   5.872   9.244   0.873
20476SOL    HW263436   5.743   9.241   0.794
20477SOL     OW63437   2.397   5.531   8.649
20477SOL    HW163438   2.368   5.447   8.684
20477SOL    HW263439   2.488   5.516   8.624
20478SOL     OW63440   3.462   6.705   1.197
20478SOL    HW163441   3.552   6.725   1.223
20478SOL    HW263442   3.465   6.613   1.171
20479SOL     OW63443   5.804   0.747   0.897
20479SOL    HW163444   5.742   0.761   0.825
20479SOL    HW263445   5.759   0.687   0.956
20480SOL     OW63446   0.774   2.818   3.910
20480SOL    HW163447   0.679   2.810   3.912
20480SOL    HW263448   0.805   2.728   3.900
20481SOL     OW63449   0.471   7.777   1.058
20481SOL    HW163450   0.550   7.733   1.089
20481SOL    HW263451   0.418   7.707   1.020
20482SOL     OW63452   8.460   7.078   0.628
20482SOL    HW163453   8.532   7.094   0.689
20482SOL    HW263454   8.491   7.006   0.573
20483SOL     OW63455   3.776   7.381   5.002
20483SOL    HW163456   3.858   7.399   5.048
20483SOL    HW263457   3.754   7.291   5.027
20484SOL     OW63458   4.928   6.585   6.091
20484SOL    HW163459   4.885   6.605   6.174
20484SOL    HW263460   4.911   6.492   6.077
20485SOL     OW63461   7.864  10.519   9.083
20485SOL    HW163462   7.884  10.462   9.008
20485SOL    HW263463   7.873  10.608   9.048
20486SOL     OW63464   8.705   5.328   0.540
20486SOL    HW163465   8.700   5.355   0.631
20486SOL    HW263466   8.760   5.250   0.541
20487SOL     OW63467   7.060   1.726   9.143
20487SOL    HW163468   7.035   1.646   9.189
20487SOL    HW263469   7.081   1.788   9.212
20488SOL     OW63470   7.078   8.380  10.708
20488SOL    HW163471   7.116   8.298  10.741
20488SOL    HW263472   7.042   8.423  10.785
20489SOL     OW63473   2.385   7.630   3.971
20489SOL    HW163474   2.331   7.677   4.035
20489SOL    HW263475   2.429   7.562   4.022
20490SOL     OW63476   6.277   5.930   8.701
20490SOL    HW163477   6.359   5.952   8.657
20490SOL    HW263478   6.301   5.919   8.793
20491SOL     OW63479   4.828   0.214   8.819
20491SOL    HW163480   4.892   0.230   8.750
20491SOL    HW263481   4.752   0.178   8.773
20492SOL     OW63482   7.883   3.981   8.214
20492SOL    HW163483   7.835   4.033   8.278
20492SOL    HW263484   7.827   3.905   8.197
20493SOL     OW63485   6.127   9.262   8.947
20493SOL    HW163486   6.097   9.330   8.887
20493SOL    HW263487   6.222   9.272   8.949
20494SOL     OW63488   7.471   3.226   7.687
20494SOL    HW163489   7.555   3.231   7.640
20494SOL    HW263490   7.484   3.158   7.753
20495SOL     OW63491   5.054   7.327   7.677
20495SOL    HW163492   5.018   7.306   7.763
20495SOL    HW263493   5.042   7.421   7.668
20496SOL     OW63494  10.698   8.896   8.389
20496SOL    HW163495  10.701   8.927   8.479
20496SOL    HW263496  10.669   8.972   8.338
20497SOL     OW63497   8.237   8.509   5.355
20497SOL    HW163498   8.214   8.422   5.387
20497SOL    HW263499   8.205   8.568   5.422
20498SOL     OW63500   8.575  10.263   7.799
20498SOL    HW163501   8.538  10.295   7.881
20498SOL    HW263502   8.554  10.169   7.798
20499SOL     OW63503   5.432   2.900  10.585
20499SOL    HW163504   5.473   2.859  10.508
20499SOL    HW263505   5.498   2.892  10.654
20500SOL     OW63506   7.394  10.238   9.813
20500SOL    HW163507   7.399  10.281   9.727
20500SOL    HW263508   7.325  10.285   9.860
20501SOL     OW63509   4.110   8.506   4.191
20501SOL    HW163510   4.111   8.452   4.270
20501SOL    HW263511   4.165   8.458   4.128
20502SOL     OW63512   5.501   8.323  10.831
20502SOL    HW163513   5.462   8.410  10.835
20502SOL    HW263514   5.596   8.338  10.829
20503SOL     OW63515   4.776   6.245   7.570
20503SOL    HW163516   4.815   6.306   7.632
20503SOL    HW263517   4.753   6.299   7.494
20504SOL     OW63518  11.096   6.030   7.319
20504SOL    HW163519  11.163   6.057   7.256
20504SOL    HW263520  11.075   5.940   7.293
20505SOL     OW63521   2.367   6.726   9.580
20505SOL    HW163522   2.354   6.813   9.617
20505SOL    HW263523   2.440   6.689   9.630
20506SOL     OW63524   3.624  10.133   4.961
20506SOL    HW163525   3.646  10.206   4.903
20506SOL    HW263526   3.694  10.069   4.945
20507SOL     OW63527   7.694  10.002   0.460
20507SOL    HW163528   7.638   9.932   0.425
20507SOL    HW263529   7.783   9.968   0.451
20508SOL     OW63530   4.109   0.191   6.947
20508SOL    HW163531   4.079   0.254   7.012
20508SOL    HW263532   4.186   0.150   6.987
20509SOL     OW63533  10.697   1.672   5.848
20509SOL    HW163534  10.654   1.684   5.932
20509SOL    HW263535  10.646   1.603   5.805
20510SOL     OW63536   1.502   6.268   6.239
20510SOL    HW163537   1.429   6.220   6.199
20510SOL    HW263538   1.580   6.223   6.205
20511SOL     OW63539   9.770   2.417   0.471
20511SOL    HW163540   9.787   2.443   0.561
20511SOL    HW263541   9.853   2.433   0.425
20512SOL     OW63542   8.319   3.108   3.435
20512SOL    HW163543   8.375   3.173   3.477
20512SOL    HW263544   8.242   3.157   3.406
20513SOL     OW63545   2.723   3.828   9.263
20513SOL    HW163546   2.806   3.780   9.272
20513SOL    HW263547   2.745   3.919   9.281
20514SOL     OW63548   3.459  10.861   2.112
20514SOL    HW163549   3.465  10.794   2.043
20514SOL    HW263550   3.510  10.825   2.185
20515SOL     OW63551   5.324   0.694   3.816
20515SOL    HW163552   5.339   0.740   3.733
20515SOL    HW263553   5.358   0.606   3.801
20516SOL     OW63554   6.734   7.098  10.865
20516SOL    HW163555   6.805   7.073  10.805
20516SOL    HW263556   6.672   7.025  10.859
20517SOL     OW63557   5.947   8.852   4.226
20517SOL    HW163558   6.017   8.788   4.242
20517SOL    HW263559   5.953   8.871   4.132
20518SOL     OW63560   5.408   9.400   4.310
20518SOL    HW163561   5.315   9.382   4.322
20518SOL    HW263562   5.439   9.330   4.252
20519SOL     OW63563   5.059   8.753   9.281
20519SOL    HW163564   5.126   8.807   9.322
20519SOL    HW263565   5.046   8.792   9.195
20520SOL     OW63566   8.338   5.836   0.992
20520SOL    HW163567   8.333   5.868   0.902
20520SOL    HW263568   8.278   5.892   1.041
20521SOL     OW63569   9.428  10.175  10.044
20521SOL    HW163570   9.475  10.146   9.965
20521SOL    HW263571   9.353  10.115  10.049
20522SOL     OW63572   4.477   6.131   9.051
20522SOL    HW163573   4.388   6.140   9.017
20522SOL    HW263574   4.508   6.220   9.063
20523SOL     OW63575   4.993   6.911  11.087
20523SOL    HW163576   4.999   6.860  11.168
20523SOL    HW263577   4.984   6.845  11.018
20524SOL     OW63578   6.513  10.442   9.929
20524SOL    HW163579   6.445  10.428   9.994
20524SOL    HW263580   6.566  10.513   9.964
20525SOL     OW63581   4.611   1.771   1.046
20525SOL    HW163582   4.653   1.811   0.970
20525SOL    HW263583   4.568   1.693   1.010
20526SOL     OW63584   5.202   3.780   2.132
20526SOL    HW163585   5.171   3.694   2.161
20526SOL    HW263586   5.201   3.834   2.211
20527SOL     OW63587   5.999   8.476   6.694
20527SOL    HW163588   6.004   8.571   6.683
20527SOL    HW263589   5.913   8.452   6.658
20528SOL     OW63590   6.763   2.038   8.178
20528SOL    HW163591   6.752   2.029   8.272
20528SOL    HW263592   6.675   2.027   8.142
20529SOL     OW63593   2.027   4.153   0.848
20529SOL    HW163594   2.094   4.086   0.865
20529SOL    HW263595   1.962   4.108   0.794
20530SOL     OW63596   2.980   9.404   8.940
20530SOL    HW163597   2.901   9.445   8.975
20530SOL    HW263598   2.960   9.388   8.847
20531SOL     OW63599   5.554   2.721   0.595
20531SOL    HW163600   5.533   2.729   0.688
20531SOL    HW263601   5.599   2.802   0.573
20532SOL     OW63602   4.432   6.379  10.097
20532SOL    HW163603   4.408   6.316  10.029
20532SOL    HW263604   4.352   6.428  10.114
20533SOL     OW63605   2.265   1.179   9.674
20533SOL    HW163606   2.323   1.226   9.734
20533SOL    HW263607   2.189   1.236   9.665
20534SOL     OW63608  10.417   0.950   0.998
20534SOL    HW163609  10.370   0.927   1.078
20534SOL    HW263610  10.509   0.954   1.024
20535SOL     OW63611   4.114   0.522   1.197
20535SOL    HW163612   4.172   0.549   1.125
20535SOL    HW263613   4.027   0.519   1.157
20536SOL     OW63614   9.371   7.535   6.451
20536SOL    HW163615   9.426   7.604   6.486
20536SOL    HW263616   9.282   7.569   6.456
20537SOL     OW63617   8.146   9.455   4.760
20537SOL    HW163618   8.161   9.407   4.678
20537SOL    HW263619   8.072   9.512   4.741
20538SOL     OW63620   4.794   3.791   1.330
20538SOL    HW163621   4.808   3.815   1.238
20538SOL    HW263622   4.699   3.781   1.338
20539SOL     OW63623   0.254   5.537  10.009
20539SOL    HW163624   0.342   5.509  10.035
20539SOL    HW263625   0.253   5.527   9.913
20540SOL     OW63626  10.593   8.238   4.863
20540SOL    HW163627  10.622   8.262   4.775
20540SOL    HW263628  10.635   8.302   4.920
20541SOL     OW63629   9.900   2.196  10.853
20541SOL    HW163630   9.861   2.183  10.939
20541SOL    HW263631   9.952   2.117  10.838
20542SOL     OW63632  10.001   8.323   9.077
20542SOL    HW163633   9.991   8.246   9.020
20542SOL    HW263634   9.943   8.389   9.038
20543SOL     OW63635  10.653   4.204   1.936
20543SOL    HW163636  10.640   4.179   2.027
20543SOL    HW263637  10.609   4.288   1.927
20544SOL     OW63638   2.740   3.971  10.753
20544SOL    HW163639   2.807   3.903  10.743
20544SOL    HW263640   2.732   3.984  10.847
20545SOL     OW63641   6.060   9.153   7.911
20545SOL    HW163642   6.042   9.146   8.005
20545SOL    HW263643   5.977   9.180   7.873
20546SOL     OW63644  10.911   1.134   8.952
20546SOL    HW163645  10.935   1.043   8.969
20546SOL    HW263646  10.878   1.133   8.862
20547SOL     OW63647   3.883   3.202   8.718
20547SOL    HW163648   3.898   3.145   8.642
20547SOL    HW263649   3.869   3.141   8.790
20548SOL     OW63650   9.073   2.265   9.006
20548SOL    HW163651   9.116   2.342   8.970
20548SOL    HW263652   9.051   2.212   8.929
20549SOL     OW63653   3.755   2.578  10.357
20549SOL    HW163654   3.704   2.555  10.279
20549SOL    HW263655   3.694   2.571  10.430
20550SOL     OW63656   3.223   8.769   6.184
20550SOL    HW163657   3.239   8.836   6.250
20550SOL    HW263658   3.287   8.700   6.203
20551SOL     OW63659   7.646   7.732  10.697
20551SOL    HW163660   7.712   7.663  10.707
20551SOL    HW263661   7.568   7.686  10.665
20552SOL     OW63662   3.927   8.213   4.308
20552SOL    HW163663   3.872   8.264   4.248
20552SOL    HW263664   3.978   8.278   4.356
20553SOL     OW63665   2.639   4.936   3.722
20553SOL    HW163666   2.595   4.857   3.691
20553SOL    HW263667   2.574   4.981   3.775
20554SOL     OW63668   8.762   2.580   8.948
20554SOL    HW163669   8.817   2.630   8.888
20554SOL    HW263670   8.791   2.607   9.035
20555SOL     OW63671   9.284   1.408   0.537
20555SOL    HW163672   9.351   1.342   0.516
20555SOL    HW263673   9.234   1.369   0.608
20556SOL     OW63674   8.445   5.883   2.408
20556SOL    HW163675   8.408   5.822   2.472
20556SOL    HW263676   8.461   5.963   2.457
20557SOL     OW63677   4.202  10.712   9.633
20557SOL    HW163678   4.212  10.621   9.606
20557SOL    HW263679   4.111  10.734   9.611
20558SOL     OW63680   9.812  10.245   5.759
20558SOL    HW163681   9.741  10.300   5.725
20558SOL    HW263682   9.787  10.225   5.849
20559SOL     OW63683   3.427   5.373  10.952
20559SOL    HW163684   3.430   5.430  11.029
20559SOL    HW263685   3.365   5.416  10.893
20560SOL     OW63686   8.962   9.208   6.991
20560SOL    HW163687   8.940   9.223   7.083
20560SOL    HW263688   9.021   9.280   6.968
20561SOL     OW63689   4.893   8.862   5.821
20561SOL    HW163690   4.988   8.864   5.831
20561SOL    HW263691   4.874   8.774   5.788
20562SOL     OW63692   6.775   5.268   7.355
20562SOL    HW163693   6.737   5.353   7.333
20562SOL    HW263694   6.842   5.253   7.287
20563SOL     OW63695   5.255   1.485   7.197
20563SOL    HW163696   5.190   1.533   7.146
20563SOL    HW263697   5.288   1.548   7.260
20564SOL     OW63698   6.187   0.599   4.633
20564SOL    HW163699   6.129   0.671   4.656
20564SOL    HW263700   6.152   0.524   4.680
20565SOL     OW63701   1.480   7.763   9.463
20565SOL    HW163702   1.532   7.714   9.399
20565SOL    HW263703   1.494   7.855   9.440
20566SOL     OW63704   6.370   2.497   2.866
20566SOL    HW163705   6.406   2.439   2.933
20566SOL    HW263706   6.445   2.548   2.836
20567SOL     OW63707   5.009  10.859   4.082
20567SOL    HW163708   5.037  10.854   4.173
20567SOL    HW263709   4.919  10.891   4.085
20568SOL     OW63710   2.175   8.394   0.086
20568SOL    HW163711   2.093   8.367   0.045
20568SOL    HW263712   2.160   8.484   0.115
20569SOL     OW63713   0.322   5.754  10.966
20569SOL    HW163714   0.334   5.668  11.006
20569SOL    HW263715   0.402   5.802  10.988
20570SOL     OW63716  10.617   7.957   4.472
20570SOL    HW163717  10.673   8.016   4.421
20570SOL    HW263718  10.528   7.980   4.446
20571SOL     OW63719  10.358   2.278   7.493
20571SOL    HW163720  10.444   2.303   7.460
20571SOL    HW263721  10.376   2.226   7.571
20572SOL     OW63722   3.814   7.627   9.510
20572SOL    HW163723   3.898   7.641   9.554
20572SOL    HW263724   3.803   7.704   9.454
20573SOL     OW63725   3.790   7.639  11.004
20573SOL    HW163726   3.713   7.627  11.060
20573SOL    HW263727   3.824   7.725  11.028
20574SOL     OW63728   3.568   8.840   0.010
20574SOL    HW163729   3.600   8.840  -0.080
20574SOL    HW263730   3.552   8.747   0.030
20575SOL     OW63731   4.708   1.350   0.309
20575SOL    HW163732   4.689   1.390   0.224
20575SOL    HW263733   4.699   1.421   0.372
20576SOL     OW63734   9.471   1.721  10.587
20576SOL    HW163735   9.448   1.633  10.616
20576SOL    HW263736   9.509   1.763  10.664
20577SOL     OW63737   1.261   5.306   2.163
20577SOL    HW163738   1.353   5.307   2.137
20577SOL    HW263739   1.263   5.314   2.258
20578SOL     OW63740  10.515   6.695   7.712
20578SOL    HW163741  10.549   6.624   7.658
20578SOL    HW263742  10.464   6.651   7.780
20579SOL     OW63743   1.552   9.808   9.050
20579SOL    HW163744   1.494   9.859   8.993
20579SOL    HW263745   1.520   9.718   9.042
20580SOL     OW63746   3.214  10.893   2.251
20580SOL    HW163747   3.165  10.813   2.266
20580SOL    HW263748   3.301  10.863   2.226
20581SOL     OW63749   3.705   7.556   0.707
20581SOL    HW163750   3.724   7.547   0.800
20581SOL    HW263751   3.662   7.641   0.699
20582SOL     OW63752   3.293   5.822  10.644
20582SOL    HW163753   3.309   5.899  10.589
20582SOL    HW263754   3.296   5.855  10.734
20583SOL     OW63755   2.036  10.515   2.150
20583SOL    HW163756   2.124  10.498   2.116
20583SOL    HW263757   2.050  10.554   2.236
20584SOL     OW63758   2.373   4.437   6.978
20584SOL    HW163759   2.441   4.373   6.956
20584SOL    HW263760   2.333   4.458   6.894
20585SOL     OW63761   5.463   8.878  10.627
20585SOL    HW163762   5.514   8.957  10.613
20585SOL    HW263763   5.396   8.880  10.559
20586SOL     OW63764   2.743   6.117   8.303
20586SOL    HW163765   2.714   6.052   8.367
20586SOL    HW263766   2.695   6.094   8.223
20587SOL     OW63767   9.636   6.110   3.764
20587SOL    HW163768   9.561   6.062   3.729
20587SOL    HW263769   9.654   6.068   3.848
20588SOL     OW63770   8.381  10.431   9.418
20588SOL    HW163771   8.373  10.434   9.513
20588SOL    HW263772   8.308  10.376   9.389
20589SOL     OW63773   3.229   5.738   2.777
20589SOL    HW163774   3.201   5.826   2.754
20589SOL    HW263775   3.305   5.721   2.721
20590SOL     OW63776   3.100   1.840   1.781
20590SOL    HW163777   3.136   1.895   1.850
20590SOL    HW263778   3.005   1.843   1.795
20591SOL     OW63779   7.068   6.090   3.580
20591SOL    HW163780   7.110   6.050   3.503
20591SOL    HW263781   7.060   6.018   3.642
20592SOL     OW63782   3.841   7.070  10.531
20592SOL    HW163783   3.900   7.099  10.601
20592SOL    HW263784   3.757   7.109  10.552
20593SOL     OW63785   3.602   4.496   6.616
20593SOL    HW163786   3.542   4.550   6.668
20593SOL    HW263787   3.688   4.512   6.654
20594SOL     OW63788   6.564   9.083  10.149
20594SOL    HW163789   6.615   9.040  10.079
20594SOL    HW263790   6.536   9.166  10.110
20595SOL     OW63791   4.072   5.709  10.390
20595SOL    HW163792   4.046   5.643  10.326
20595SOL    HW263793   3.990   5.744  10.423
20596SOL     OW63794   5.502  10.098   9.817
20596SOL    HW163795   5.582  10.046   9.818
20596SOL    HW263796   5.510  10.153   9.739
20597SOL     OW63797   7.927   7.736   8.413
20597SOL    HW163798   7.876   7.704   8.338
20597SOL    HW263799   8.016   7.745   8.379
20598SOL     OW63800   5.032   2.845  11.015
20598SOL    HW163801   5.036   2.913  11.082
20598SOL    HW263802   5.110   2.860  10.961
20599SOL     OW63803   0.278   1.175   5.692
20599SOL    HW163804   0.281   1.252   5.748
20599SOL    HW263805   0.293   1.101   5.751
20600SOL     OW63806   1.858   3.617   0.222
20600SOL    HW163807   1.900   3.607   0.307
20600SOL    HW263808   1.871   3.709   0.198
20601SOL     OW63809   8.521   8.488   6.141
20601SOL    HW163810   8.600   8.451   6.181
20601SOL    HW263811   8.554   8.543   6.070
20602SOL     OW63812   5.623   3.349   8.851
20602SOL    HW163813   5.587   3.357   8.939
20602SOL    HW263814   5.705   3.398   8.854
20603SOL     OW63815   8.059   2.008   5.363
20603SOL    HW163816   7.990   1.942   5.354
20603SOL    HW263817   8.133   1.972   5.314
20604SOL     OW63818   9.871   7.751   1.209
20604SOL    HW163819   9.834   7.662   1.213
20604SOL    HW263820   9.965   7.737   1.200
20605SOL     OW63821   1.893   9.376  10.217
20605SOL    HW163822   1.873   9.469  10.219
20605SOL    HW263823   1.814   9.336  10.180
20606SOL     OW63824   6.463   6.811   1.333
20606SOL    HW163825   6.389   6.771   1.287
20606SOL    HW263826   6.540   6.765   1.299
20607SOL     OW63827   3.565   4.471   3.464
20607SOL    HW163828   3.500   4.503   3.526
20607SOL    HW263829   3.521   4.401   3.416
20608SOL     OW63830   5.248   7.320   0.225
20608SOL    HW163831   5.201   7.237   0.216
20608SOL    HW263832   5.181   7.383   0.250
20609SOL     OW63833   3.774   8.327  10.235
20609SOL    HW163834   3.832   8.277  10.177
20609SOL    HW263835   3.693   8.337  10.184
20610SOL     OW63836   0.450   0.405  10.236
20610SOL    HW163837   0.478   0.365  10.318
20610SOL    HW263838   0.500   0.486  10.230
20611SOL     OW63839   5.745   8.200   8.188
20611SOL    HW163840   5.777   8.175   8.274
20611SOL    HW263841   5.660   8.156   8.180
20612SOL     OW63842   8.395   6.073  10.089
20612SOL    HW163843   8.305   6.076  10.120
20612SOL    HW263844   8.401   6.144  10.025
20613SOL     OW63845   5.592   7.392   3.924
20613SOL    HW163846   5.504   7.358   3.940
20613SOL    HW263847   5.650   7.318   3.943
20614SOL     OW63848   0.744   3.679  10.027
20614SOL    HW163849   0.674   3.698  10.089
20614SOL    HW263850   0.701   3.633   9.954
20615SOL     OW63851   4.630   1.503   8.825
20615SOL    HW163852   4.545   1.468   8.851
20615SOL    HW263853   4.683   1.499   8.904
20616SOL     OW63854   3.186   1.018   5.016
20616SOL    HW163855   3.227   1.021   4.929
20616SOL    HW263856   3.161   1.108   5.034
20617SOL     OW63857   3.550   9.530   2.152
20617SOL    HW163858   3.590   9.486   2.227
20617SOL    HW263859   3.624   9.553   2.096
20618SOL     OW63860   4.533   8.275   9.720
20618SOL    HW163861   4.462   8.213   9.702
20618SOL    HW263862   4.584   8.276   9.639
20619SOL     OW63863   1.692   4.695   0.073
20619SOL    HW163864   1.700   4.668  -0.018
20619SOL    HW263865   1.607   4.738   0.078
20620SOL     OW63866   9.710   7.306  10.715
20620SOL    HW163867   9.675   7.326  10.801
20620SOL    HW263868   9.679   7.377  10.659
20621SOL     OW63869   5.146   8.482   1.081
20621SOL    HW163870   5.220   8.441   1.126
20621SOL    HW263871   5.070   8.460   1.134
20622SOL     OW63872   5.863   2.637   9.507
20622SOL    HW163873   5.918   2.592   9.442
20622SOL    HW263874   5.866   2.729   9.481
20623SOL     OW63875   3.495  10.291   1.507
20623SOL    HW163876   3.499  10.284   1.602
20623SOL    HW263877   3.514  10.202   1.476
20624SOL     OW63878   6.097   0.816   7.145
20624SOL    HW163879   6.087   0.852   7.057
20624SOL    HW263880   6.183   0.773   7.144
20625SOL     OW63881   3.632   2.842   2.824
20625SOL    HW163882   3.572   2.824   2.896
20625SOL    HW263883   3.575   2.855   2.748
20626SOL     OW63884   6.814   8.281   1.249
20626SOL    HW163885   6.803   8.343   1.177
20626SOL    HW263886   6.735   8.292   1.302
20627SOL     OW63887   4.562   8.436   3.361
20627SOL    HW163888   4.558   8.531   3.364
20627SOL    HW263889   4.513   8.412   3.282
20628SOL     OW63890   1.639   8.600   5.431
20628SOL    HW163891   1.570   8.651   5.472
20628SOL    HW263892   1.647   8.636   5.343
20629SOL     OW63893   2.503   5.780   5.560
20629SOL    HW163894   2.544   5.841   5.621
20629SOL    HW263895   2.433   5.830   5.519
20630SOL     OW63896   9.051  10.396   8.754
20630SOL    HW163897   8.962  10.398   8.789
20630SOL    HW263898   9.075  10.488   8.743
20631SOL     OW63899   4.664   9.891   1.361
20631SOL    HW163900   4.658   9.831   1.435
20631SOL    HW263901   4.740   9.860   1.311
20632SOL     OW63902   0.085   7.004  10.477
20632SOL    HW163903   0.107   7.095  10.497
20632SOL    HW263904   0.070   6.963  10.562
20633SOL     OW63905   8.304  10.779   1.754
20633SOL    HW163906   8.376  10.716   1.760
20633SOL    HW263907   8.261  10.775   1.839
20634SOL     OW63908   2.715   7.843   0.538
20634SOL    HW163909   2.688   7.934   0.525
20634SOL    HW263910   2.657   7.792   0.481
20635SOL     OW63911   1.521   6.596   1.420
20635SOL    HW163912   1.555   6.569   1.334
20635SOL    HW263913   1.597   6.592   1.477
20636SOL     OW63914   2.764   6.260   8.609
20636SOL    HW163915   2.735   6.265   8.518
20636SOL    HW263916   2.724   6.179   8.642
20637SOL     OW63917   1.497   2.020   1.514
20637SOL    HW163918   1.447   2.091   1.553
20637SOL    HW263919   1.469   2.017   1.422
20638SOL     OW63920   4.213   1.843   7.994
20638SOL    HW163921   4.143   1.790   7.955
20638SOL    HW263922   4.260   1.880   7.919
20639SOL     OW63923   4.113   0.870   9.565
20639SOL    HW163924   4.051   0.804   9.596
20639SOL    HW263925   4.141   0.838   9.479
20640SOL     OW63926   4.989   6.781   0.420
20640SOL    HW163927   5.078   6.752   0.441
20640SOL    HW263928   4.933   6.733   0.481
20641SOL     OW63929   7.609   7.058   1.606
20641SOL    HW163930   7.537   7.112   1.573
20641SOL    HW263931   7.621   6.990   1.539
20642SOL     OW63932   4.880   6.120   3.937
20642SOL    HW163933   4.866   6.036   3.893
20642SOL    HW263934   4.882   6.098   4.030
20643SOL     OW63935   0.253   4.687   2.894
20643SOL    HW163936   0.163   4.655   2.891
20643SOL    HW263937   0.255   4.758   2.830
20644SOL     OW63938   5.605   4.722   9.892
20644SOL    HW163939   5.651   4.638   9.885
20644SOL    HW263940   5.616   4.748   9.983
20645SOL     OW63941   1.887   7.101   9.894
20645SOL    HW163942   1.953   7.079   9.828
20645SOL    HW263943   1.929   7.080   9.977
20646SOL     OW63944   5.535   5.978   0.181
20646SOL    HW163945   5.474   5.992   0.254
20646SOL    HW263946   5.613   6.027   0.206
20647SOL     OW63947   7.312   9.943   7.923
20647SOL    HW163948   7.393   9.974   7.963
20647SOL    HW263949   7.339   9.913   7.836
20648SOL     OW63950   4.904   6.416   9.632
20648SOL    HW163951   4.958   6.484   9.671
20648SOL    HW263952   4.844   6.463   9.574
20649SOL     OW63953   4.650   5.547  10.168
20649SOL    HW163954   4.593   5.536  10.244
20649SOL    HW263955   4.591   5.541  10.093
20650SOL     OW63956   5.376   7.818   5.994
20650SOL    HW163957   5.412   7.878   6.059
20650SOL    HW263958   5.282   7.819   6.009
20651SOL     OW63959   2.758   7.179   9.867
20651SOL    HW163960   2.841   7.138   9.892
20651SOL    HW263961   2.783   7.251   9.810
20652SOL     OW63962   6.123   6.153   0.926
20652SOL    HW163963   6.185   6.081   0.916
20652SOL    HW263964   6.143   6.211   0.853
20653SOL     OW63965   1.721   8.375   1.414
20653SOL    HW163966   1.629   8.381   1.388
20653SOL    HW263967   1.744   8.283   1.399
20654SOL     OW63968   4.630  10.633   8.521
20654SOL    HW163969   4.539  10.610   8.501
20654SOL    HW263970   4.663  10.671   8.439
20655SOL     OW63971   5.082  10.247  10.059
20655SOL    HW163972   5.029  10.196   9.997
20655SOL    HW263973   5.089  10.191  10.136
20656SOL     OW63974   4.689   8.948   5.966
20656SOL    HW163975   4.738   8.906   5.895
20656SOL    HW263976   4.731   9.033   5.977
20657SOL     OW63977   4.376   4.781   9.655
20657SOL    HW163978   4.397   4.711   9.593
20657SOL    HW263979   4.303   4.828   9.614
20658SOL     OW63980   9.732   3.037  10.474
20658SOL    HW163981   9.795   2.967  10.493
20658SOL    HW263982   9.771   3.116  10.511
20659SOL     OW63983   7.977   0.219  10.245
20659SOL    HW163984   7.997   0.301  10.289
20659SOL    HW263985   8.038   0.216  10.171
20660SOL     OW63986   5.623   2.587  10.768
20660SOL    HW163987   5.693   2.645  10.739
20660SOL    HW263988   5.626   2.592  10.863
20661SOL     OW63989   5.628   9.893   3.407
20661SOL    HW163990   5.560   9.901   3.340
20661SOL    HW263991   5.590   9.932   3.485
20662SOL     OW63992   7.989   7.332   5.081
20662SOL    HW163993   8.013   7.343   5.173
20662SOL    HW263994   8.062   7.283   5.043
20663SOL     OW63995   3.473   4.464   4.031
20663SOL    HW163996   3.543   4.408   4.066
20663SOL    HW263997   3.397   4.444   4.085
20664SOL     OW63998   2.440   8.138   8.665
20664SOL    HW163999   2.418   8.227   8.639
20664SOL    HW264000   2.521   8.147   8.715
20665SOL     OW64001   6.404  10.313   4.215
20665SOL    HW164002   6.413  10.303   4.120
20665SOL    HW264003   6.374  10.403   4.227
20666SOL     OW64004   4.825   8.887   1.053
20666SOL    HW164005   4.896   8.870   0.990
20666SOL    HW264006   4.846   8.831   1.128
20667SOL     OW64007   3.172   4.207  10.666
20667SOL    HW164008   3.266   4.224  10.654
20667SOL    HW264009   3.168   4.148  10.741
20668SOL     OW64010   5.366   8.554  10.881
20668SOL    HW164011   5.275   8.525  10.891
20668SOL    HW264012   5.361   8.649  10.870
20669SOL     OW64013   8.618   8.648   4.724
20669SOL    HW164014   8.586   8.597   4.649
20669SOL    HW264015   8.680   8.589   4.768
20670SOL     OW64016   8.113   9.278   7.677
20670SOL    HW164017   8.170   9.351   7.653
20670SOL    HW264018   8.169   9.221   7.730
20671SOL     OW64019   5.024   8.128   0.924
20671SOL    HW164020   5.014   8.200   0.986
20671SOL    HW264021   5.109   8.089   0.946
20672SOL     OW64022   3.650   4.576   8.649
20672SOL    HW164023   3.670   4.663   8.682
20672SOL    HW264024   3.568   4.587   8.600
20673SOL     OW64025  10.118   7.688  10.905
20673SOL    HW164026  10.121   7.602  10.948
20673SOL    HW264027  10.108   7.750  10.976
20674SOL     OW64028   6.493   5.200   8.589
20674SOL    HW164029   6.488   5.251   8.508
20674SOL    HW264030   6.403   5.171   8.605
20675SOL     OW64031   2.535   6.101   7.017
20675SOL    HW164032   2.478   6.066   6.948
20675SOL    HW264033   2.527   6.196   7.009
20676SOL     OW64034   6.534   1.048   7.156
20676SOL    HW164035   6.577   0.965   7.135
20676SOL    HW264036   6.470   1.025   7.224
20677SOL     OW64037   6.200   3.597  10.500
20677SOL    HW164038   6.121   3.625  10.453
20677SOL    HW264039   6.168   3.544  10.573
20678SOL     OW64040   6.495  10.305   8.372
20678SOL    HW164041   6.487  10.215   8.405
20678SOL    HW264042   6.414  10.319   8.323
20679SOL     OW64043  10.312   3.830   8.237
20679SOL    HW164044  10.274   3.755   8.283
20679SOL    HW264045  10.373   3.868   8.300
20680SOL     OW64046   5.844   7.838   8.474
20680SOL    HW164047   5.826   7.744   8.475
20680SOL    HW264048   5.903   7.850   8.399
20681SOL     OW64049   7.117   7.375   7.009
20681SOL    HW164050   7.133   7.323   7.087
20681SOL    HW264051   7.067   7.450   7.040
20682SOL     OW64052   6.469   1.017   8.406
20682SOL    HW164053   6.457   1.074   8.481
20682SOL    HW264054   6.515   1.071   8.341
20683SOL     OW64055  10.771   8.820  10.624
20683SOL    HW164056  10.840   8.826  10.690
20683SOL    HW264057  10.766   8.726  10.604
20684SOL     OW64058   3.735  10.659   0.498
20684SOL    HW164059   3.709  10.602   0.570
20684SOL    HW264060   3.654  10.679   0.452
20685SOL     OW64061   9.909   5.125   6.067
20685SOL    HW164062   9.917   5.219   6.078
20685SOL    HW264063   9.985   5.100   6.014
20686SOL     OW64064   3.137   0.515   1.926
20686SOL    HW164065   3.197   0.496   1.998
20686SOL    HW264066   3.083   0.436   1.918
20687SOL     OW64067   6.101   6.635  10.780
20687SOL    HW164068   6.180   6.672  10.740
20687SOL    HW264069   6.113   6.648  10.874
20688SOL     OW64070   9.713  10.687   4.434
20688SOL    HW164071   9.618  10.679   4.435
20688SOL    HW264072   9.734  10.707   4.342
20689SOL     OW64073   0.933   4.673   9.326
20689SOL    HW164074   0.943   4.611   9.398
20689SOL    HW264075   1.012   4.660   9.273
20690SOL     OW64076   0.177   8.401   0.766
20690SOL    HW164077   0.206   8.455   0.839
20690SOL    HW264078   0.167   8.313   0.803
20691SOL     OW64079   4.895   0.319   2.267
20691SOL    HW164080   4.861   0.276   2.345
20691SOL    HW264081   4.824   0.312   2.203
20692SOL     OW64082   2.104   9.240   8.244
20692SOL    HW164083   2.010   9.244   8.261
20692SOL    HW264084   2.143   9.224   8.330
20693SOL     OW64085   0.054   7.537   6.892
20693SOL    HW164086   0.003   7.563   6.969
20693SOL    HW264087  -0.011   7.500   6.832
20694SOL     OW64088   2.281   8.134   9.356
20694SOL    HW164089   2.359   8.084   9.331
20694SOL    HW264090   2.248   8.089   9.434
20695SOL     OW64091   2.665   8.765   5.286
20695SOL    HW164092   2.756   8.770   5.257
20695SOL    HW264093   2.668   8.783   5.380
20696SOL     OW64094   2.971  10.465   6.089
20696SOL    HW164095   3.030  10.389   6.087
20696SOL    HW264096   3.013  10.526   6.150
20697SOL     OW64097   5.413   0.144   2.817
20697SOL    HW164098   5.391   0.084   2.745
20697SOL    HW264099   5.371   0.105   2.893
20698SOL     OW64100   7.680  10.579   0.913
20698SOL    HW164101   7.654  10.624   0.993
20698SOL    HW264102   7.650  10.636   0.842
20699SOL     OW64103  10.600   0.480   9.069
20699SOL    HW164104  10.679   0.427   9.080
20699SOL    HW264105  10.592   0.529   9.150
20700SOL     OW64106   3.502   7.661   8.250
20700SOL    HW164107   3.510   7.607   8.328
20700SOL    HW264108   3.581   7.642   8.200
20701SOL     OW64109   8.116   4.630   1.003
20701SOL    HW164110   8.038   4.577   0.986
20701SOL    HW264111   8.181   4.568   1.036
20702SOL     OW64112   3.991   7.805   2.101
20702SOL    HW164113   3.985   7.709   2.104
20702SOL    HW264114   3.925   7.830   2.037
20703SOL     OW64115   4.614   9.703  10.954
20703SOL    HW164116   4.666   9.725  11.031
20703SOL    HW264117   4.632   9.773  10.892
20704SOL     OW64118   4.601   8.906   1.759
20704SOL    HW164119   4.617   8.928   1.667
20704SOL    HW264120   4.506   8.913   1.769
20705SOL     OW64121   3.001   6.588  10.605
20705SOL    HW164122   3.094   6.600  10.622
20705SOL    HW264123   2.960   6.592  10.691
20706SOL     OW64124   5.922   0.145   5.176
20706SOL    HW164125   5.906   0.183   5.090
20706SOL    HW264126   5.945   0.054   5.157
20707SOL     OW64127   2.380   7.723  10.417
20707SOL    HW164128   2.411   7.782  10.348
20707SOL    HW264129   2.436   7.645  10.408
20708SOL     OW64130   5.668  10.647   5.441
20708SOL    HW164131   5.593  10.617   5.389
20708SOL    HW264132   5.663  10.597   5.522
20709SOL     OW64133   2.590   9.866   8.638
20709SOL    HW164134   2.645   9.787   8.644
20709SOL    HW264135   2.504   9.833   8.614
20710SOL     OW64136   4.063   9.939   1.395
20710SOL    HW164137   3.990   9.951   1.456
20710SOL    HW264138   4.043   9.857   1.350
20711SOL     OW64139   3.770   8.642   0.768
20711SOL    HW164140   3.793   8.690   0.847
20711SOL    HW264141   3.793   8.701   0.696
20712SOL     OW64142   1.463   5.699   4.519
20712SOL    HW164143   1.439   5.686   4.427
20712SOL    HW264144   1.478   5.610   4.552
20713SOL     OW64145   2.769   6.915   0.464
20713SOL    HW164146   2.677   6.934   0.446
20713SOL    HW264147   2.816   6.994   0.437
20714SOL     OW64148   0.411   7.161   8.185
20714SOL    HW164149   0.418   7.195   8.095
20714SOL    HW264150   0.319   7.137   8.194
20715SOL     OW64151   5.503   2.233   4.709
20715SOL    HW164152   5.501   2.259   4.617
20715SOL    HW264153   5.498   2.315   4.757
20716SOL     OW64154   6.908   3.011   9.959
20716SOL    HW164155   6.972   3.047   9.898
20716SOL    HW264156   6.955   3.005  10.042
20717SOL     OW64157   6.489   7.153   2.328
20717SOL    HW164158   6.508   7.199   2.246
20717SOL    HW264159   6.566   7.169   2.383
20718SOL     OW64160   4.321   1.402   2.905
20718SOL    HW164161   4.277   1.484   2.882
20718SOL    HW264162   4.251   1.344   2.935
20719SOL     OW64163   6.248   4.104   3.717
20719SOL    HW164164   6.272   4.193   3.693
20719SOL    HW264165   6.195   4.073   3.643
20720SOL     OW64166   8.286   6.713   0.385
20720SOL    HW164167   8.281   6.782   0.319
20720SOL    HW264168   8.232   6.745   0.457
20721SOL     OW64169   7.046   5.633   2.460
20721SOL    HW164170   7.032   5.563   2.396
20721SOL    HW264171   6.958   5.665   2.480
20722SOL     OW64172   6.179  10.655   2.698
20722SOL    HW164173   6.120  10.661   2.623
20722SOL    HW264174   6.263  10.689   2.665
20723SOL     OW64175   0.757   5.530   3.652
20723SOL    HW164176   0.676   5.483   3.633
20723SOL    HW264177   0.811   5.517   3.573
20724SOL     OW64178   7.854  10.729  10.812
20724SOL    HW164179   7.880  10.669  10.742
20724SOL    HW264180   7.820  10.673  10.881
20725SOL     OW64181   8.879   1.265   9.473
20725SOL    HW164182   8.859   1.193   9.533
20725SOL    HW264183   8.893   1.340   9.530
20726SOL     OW64184   6.114   1.282   3.488
20726SOL    HW164185   6.132   1.247   3.400
20726SOL    HW264186   6.048   1.350   3.474
20727SOL     OW64187   4.245   9.166  10.038
20727SOL    HW164188   4.305   9.110  10.087
20727SOL    HW264189   4.262   9.254  10.071
20728SOL     OW64190   8.929   6.343   2.464
20728SOL    HW164191   8.940   6.280   2.392
20728SOL    HW264192   9.003   6.403   2.454
20729SOL     OW64193  10.228  10.998   2.567
20729SOL    HW164194  10.299  10.936   2.581
20729SOL    HW264195  10.188  10.971   2.484
20730SOL     OW64196   0.630   9.309   6.498
20730SOL    HW164197   0.601   9.258   6.573
20730SOL    HW264198   0.603   9.398   6.518
20731SOL     OW64199   1.718   0.378   0.008
20731SOL    HW164200   1.636   0.355  -0.035
20731SOL    HW264201   1.727   0.312   0.078
20732SOL     OW64202   2.479   8.245  10.536
20732SOL    HW164203   2.400   8.193  10.551
20732SOL    HW264204   2.542   8.212  10.600
20733SOL     OW64205   0.915   3.867   1.868
20733SOL    HW164206   0.980   3.936   1.856
20733SOL    HW264207   0.893   3.839   1.779
20734SOL     OW64208   5.314   9.062   0.664
20734SOL    HW164209   5.364   8.981   0.674
20734SOL    HW264210   5.321   9.105   0.749
20735SOL     OW64211   2.278   3.350   8.398
20735SOL    HW164212   2.343   3.310   8.456
20735SOL    HW264213   2.290   3.305   8.314
20736SOL     OW64214   5.961   3.238   6.939
20736SOL    HW164215   5.999   3.233   7.026
20736SOL    HW264216   6.010   3.173   6.888
20737SOL     OW64217   4.525   9.888  10.393
20737SOL    HW164218   4.553   9.829  10.322
20737SOL    HW264219   4.449   9.934  10.357
20738SOL     OW64220   3.845   9.460   8.689
20738SOL    HW164221   3.909   9.524   8.657
20738SOL    HW264222   3.847   9.468   8.784
20739SOL     OW64223   7.618   5.933   3.499
20739SOL    HW164224   7.591   5.865   3.561
20739SOL    HW264225   7.708   5.910   3.476
20740SOL     OW64226   7.772   6.710   9.690
20740SOL    HW164227   7.718   6.670   9.758
20740SOL    HW264228   7.785   6.639   9.626
20741SOL     OW64229   5.952   9.953   9.548
20741SOL    HW164230   6.033  10.003   9.540
20741SOL    HW264231   5.967   9.874   9.495
20742SOL     OW64232   3.901   8.847   0.145
20742SOL    HW164233   3.917   8.796   0.225
20742SOL    HW264234   3.829   8.906   0.168
20743SOL     OW64235   9.795   0.539   7.668
20743SOL    HW164236   9.769   0.569   7.755
20743SOL    HW264237   9.889   0.556   7.663
20744SOL     OW64238   0.308   5.362   5.283
20744SOL    HW164239   0.305   5.412   5.201
20744SOL    HW264240   0.274   5.422   5.349
20745SOL     OW64241   8.959   4.889   5.920
20745SOL    HW164242   8.868   4.918   5.917
20745SOL    HW264243   8.967   4.843   6.003
20746SOL     OW64244   1.725   0.184   5.732
20746SOL    HW164245   1.647   0.229   5.762
20746SOL    HW264246   1.694   0.096   5.708
20747SOL     OW64247   7.950  10.329   1.671
20747SOL    HW164248   7.864  10.363   1.696
20747SOL    HW264249   7.933  10.238   1.645
20748SOL     OW64250   8.689   5.800   8.589
20748SOL    HW164251   8.653   5.737   8.526
20748SOL    HW264252   8.712   5.747   8.665
20749SOL     OW64253   9.439   0.407   8.990
20749SOL    HW164254   9.528   0.438   9.009
20749SOL    HW264255   9.452   0.333   8.931
20750SOL     OW64256   5.722   7.433   6.901
20750SOL    HW164257   5.687   7.483   6.827
20750SOL    HW264258   5.687   7.344   6.889
20751SOL     OW64259   4.423   9.224   0.955
20751SOL    HW164260   4.488   9.249   1.020
20751SOL    HW264261   4.465   9.243   0.871
20752SOL     OW64262   8.545   4.031  10.773
20752SOL    HW164263   8.498   3.974  10.712
20752SOL    HW264264   8.476   4.078  10.820
20753SOL     OW64265   2.531   7.092  10.306
20753SOL    HW164266   2.552   7.117  10.216
20753SOL    HW264267   2.452   7.141  10.327
20754SOL     OW64268   8.543   8.604   1.004
20754SOL    HW164269   8.532   8.695   1.030
20754SOL    HW264270   8.485   8.593   0.928
20755SOL     OW64271   9.460   5.913   3.721
20755SOL    HW164272   9.493   5.845   3.661
20755SOL    HW264273   9.447   5.867   3.804
20756SOL     OW64274   6.138   4.576  10.368
20756SOL    HW164275   6.054   4.544  10.335
20756SOL    HW264276   6.203   4.534  10.311
20757SOL     OW64277   3.341   1.013   8.228
20757SOL    HW164278   3.259   1.029   8.180
20757SOL    HW264279   3.410   1.023   8.162
20758SOL     OW64280   1.236   5.601   9.395
20758SOL    HW164281   1.207   5.520   9.352
20758SOL    HW264282   1.285   5.647   9.327
20759SOL     OW64283   5.616   8.040  10.837
20759SOL    HW164284   5.553   8.112  10.831
20759SOL    HW264285   5.700   8.079  10.813
20760SOL     OW64286   7.618   1.827   3.252
20760SOL    HW164287   7.652   1.769   3.320
20760SOL    HW264288   7.695   1.872   3.218
20761SOL     OW64289   2.982   1.735   2.724
20761SOL    HW164290   3.045   1.692   2.666
20761SOL    HW264291   3.007   1.827   2.723
20762SOL     OW64292   3.184   6.687   1.365
20762SOL    HW164293   3.206   6.660   1.276
20762SOL    HW264294   3.092   6.711   1.361
20763SOL     OW64295   8.667   7.986   8.971
20763SOL    HW164296   8.628   8.049   8.910
20763SOL    HW264297   8.669   8.032   9.055
20764SOL     OW64298   5.310   2.934   2.352
20764SOL    HW164299   5.346   3.013   2.392
20764SOL    HW264300   5.242   2.966   2.293
20765SOL     OW64301   4.126   0.142   2.639
20765SOL    HW164302   4.204   0.156   2.584
20765SOL    HW264303   4.102   0.229   2.670
20766SOL     OW64304   4.519   1.546  10.407
20766SOL    HW164305   4.467   1.582  10.478
20766SOL    HW264306   4.486   1.589  10.328
20767SOL     OW64307   1.704   7.354  10.492
20767SOL    HW164308   1.651   7.405  10.553
20767SOL    HW264309   1.640   7.307  10.437
20768SOL     OW64310   5.259   0.601   0.865
20768SOL    HW164311   5.274   0.641   0.950
20768SOL    HW264312   5.210   0.521   0.884
20769SOL     OW64313   5.865   3.272   6.220
20769SOL    HW164314   5.891   3.359   6.190
20769SOL    HW264315   5.775   3.283   6.249
20770SOL     OW64316   8.706   1.144   2.722
20770SOL    HW164317   8.753   1.097   2.791
20770SOL    HW264318   8.772   1.160   2.654
20771SOL     OW64319   3.083   6.345   1.313
20771SOL    HW164320   3.009   6.406   1.314
20771SOL    HW264321   3.078   6.303   1.227
20772SOL     OW64322   0.481   0.590   3.089
20772SOL    HW164323   0.392   0.624   3.098
20772SOL    HW264324   0.529   0.627   3.163
20773SOL     OW64325   5.469   7.879   6.775
20773SOL    HW164326   5.431   7.938   6.839
20773SOL    HW264327   5.560   7.869   6.802
20774SOL     OW64328  10.590   4.139  10.319
20774SOL    HW164329  10.618   4.214  10.267
20774SOL    HW264330  10.505   4.114  10.281
20775SOL     OW64331   0.917   8.983   1.015
20775SOL    HW164332   0.839   9.032   0.991
20775SOL    HW264333   0.928   8.998   1.108
20776SOL     OW64334   7.370   9.571   6.812
20776SOL    HW164335   7.461   9.543   6.819
20776SOL    HW264336   7.357   9.588   6.718
20777SOL     OW64337   7.902   6.809  10.620
20777SOL    HW164338   7.828   6.859  10.654
20777SOL    HW264339   7.926   6.749  10.691
20778SOL     OW64340  10.191   5.458   4.108
20778SOL    HW164341  10.116   5.438   4.052
20778SOL    HW264342  10.266   5.420   4.062
20779SOL     OW64343   8.294  10.332   0.971
20779SOL    HW164344   8.203  10.332   0.943
20779SOL    HW264345   8.325  10.421   0.953
20780SOL     OW64346   7.026   7.210   1.633
20780SOL    HW164347   7.039   7.201   1.727
20780SOL    HW264348   6.934   7.233   1.624
20781SOL     OW64349   5.537   4.527   3.751
20781SOL    HW164350   5.549   4.438   3.786
20781SOL    HW264351   5.492   4.574   3.820
20782SOL     OW64352   5.518   4.945   1.434
20782SOL    HW164353   5.497   5.023   1.485
20782SOL    HW264354   5.603   4.964   1.394
20783SOL     OW64355   2.672   4.367   8.509
20783SOL    HW164356   2.668   4.345   8.416
20783SOL    HW264357   2.599   4.319   8.548
20784SOL     OW64358   4.494   1.768   0.704
20784SOL    HW164359   4.499   1.858   0.736
20784SOL    HW264360   4.562   1.762   0.637
20785SOL     OW64361   3.585   1.613   3.078
20785SOL    HW164362   3.599   1.686   3.137
20785SOL    HW264363   3.623   1.642   2.995
20786SOL     OW64364   4.471  11.017  10.932
20786SOL    HW164365   4.440  10.931  10.960
20786SOL    HW264366   4.420  11.079  10.984
20787SOL     OW64367  10.490   1.776   9.071
20787SOL    HW164368  10.396   1.761   9.064
20787SOL    HW264369  10.501   1.869   9.052
20788SOL     OW64370   0.915   0.911   0.094
20788SOL    HW164371   0.874   0.988   0.133
20788SOL    HW264372   0.842   0.858   0.063
20789SOL     OW64373   0.651  10.395   5.299
20789SOL    HW164374   0.644  10.390   5.394
20789SOL    HW264375   0.562  10.411   5.268
20790SOL     OW64376   2.779   8.676   8.905
20790SOL    HW164377   2.803   8.584   8.915
20790SOL    HW264378   2.840   8.723   8.962
20791SOL     OW64379   1.675   6.214   9.854
20791SOL    HW164380   1.659   6.206   9.760
20791SOL    HW264381   1.769   6.232   9.861
20792SOL     OW64382  10.885   2.956   6.955
20792SOL    HW164383  10.911   2.868   6.983
20792SOL    HW264384  10.951   2.980   6.889
20793SOL     OW64385   7.273   0.793   0.975
20793SOL    HW164386   7.209   0.761   1.039
20793SOL    HW264387   7.350   0.737   0.988
20794SOL     OW64388   2.534   6.584   5.403
20794SOL    HW164389   2.470   6.535   5.455
20794SOL    HW264390   2.604   6.520   5.385
20795SOL     OW64391  10.026   1.161   2.067
20795SOL    HW164392   9.990   1.234   2.017
20795SOL    HW264393  10.076   1.202   2.137
20796SOL     OW64394   2.338   9.668   7.932
20796SOL    HW164395   2.345   9.620   7.849
20796SOL    HW264396   2.417   9.643   7.979
20797SOL     OW64397   3.254   1.117   0.427
20797SOL    HW164398   3.328   1.136   0.368
20797SOL    HW264399   3.268   1.026   0.454
20798SOL     OW64400   9.259   9.913   6.040
20798SOL    HW164401   9.286   9.849   6.106
20798SOL    HW264402   9.303   9.994   6.065
20799SOL     OW64403   1.527   5.555   1.959
20799SOL    HW164404   1.583   5.479   1.976
20799SOL    HW264405   1.588   5.629   1.955
20800SOL     OW64406   7.889   0.203   0.194
20800SOL    HW164407   7.921   0.256   0.122
20800SOL    HW264408   7.794   0.212   0.191
20801SOL     OW64409   3.235   7.240   8.321
20801SOL    HW164410   3.278   7.272   8.241
20801SOL    HW264411   3.278   7.287   8.392
20802SOL     OW64412   5.653   6.327   7.621
20802SOL    HW164413   5.614   6.329   7.533
20802SOL    HW264414   5.594   6.380   7.675
20803SOL     OW64415   9.258   5.421   9.595
20803SOL    HW164416   9.326   5.464   9.542
20803SOL    HW264417   9.305   5.355   9.646
20804SOL     OW64418   1.833   0.623   1.227
20804SOL    HW164419   1.753   0.571   1.221
20804SOL    HW264420   1.864   0.630   1.136
20805SOL     OW64421   2.735   5.438   7.202
20805SOL    HW164422   2.818   5.470   7.167
20805SOL    HW264423   2.708   5.504   7.265
20806SOL     OW64424   9.103   1.174   1.052
20806SOL    HW164425   9.034   1.223   1.007
20806SOL    HW264426   9.095   1.085   1.017
20807SOL     OW64427   6.607   8.190  10.255
20807SOL    HW164428   6.592   8.283  10.273
20807SOL    HW264429   6.531   8.163  10.203
20808SOL     OW64430   8.810   4.025  10.201
20808SOL    HW164431   8.878   3.983  10.253
20808SOL    HW264432   8.807   3.974  10.120
20809SOL     OW64433   6.338   2.354   4.828
20809SOL    HW164434   6.378   2.424   4.776
20809SOL    HW264435   6.402   2.335   4.897
20810SOL     OW64436   3.064   9.420   3.767
20810SOL    HW164437   3.044   9.359   3.838
20810SOL    HW264438   3.111   9.367   3.702
20811SOL     OW64439   7.051   8.491   4.260
20811SOL    HW164440   6.980   8.443   4.303
20811SOL    HW264441   7.127   8.477   4.316
20812SOL     OW64442   4.120   7.575   4.692
20812SOL    HW164443   4.182   7.620   4.749
20812SOL    HW264444   4.143   7.482   4.701
20813SOL     OW64445   9.130   5.119  10.093
20813SOL    HW164446   9.126   5.025  10.113
20813SOL    HW264447   9.153   5.122  10.000
20814SOL     OW64448  10.005   7.969   1.847
20814SOL    HW164449  10.085   7.920   1.867
20814SOL    HW264450   9.972   7.998   1.932
20815SOL     OW64451   4.690   4.093   5.798
20815SOL    HW164452   4.764   4.123   5.745
20815SOL    HW264453   4.689   4.152   5.873
20816SOL     OW64454   4.805   9.242   5.952
20816SOL    HW164455   4.840   9.329   5.933
20816SOL    HW264456   4.755   9.219   5.874
20817SOL     OW64457   8.402   9.604   3.000
20817SOL    HW164458   8.402   9.668   3.070
20817SOL    HW264459   8.447   9.647   2.927
20818SOL     OW64460   0.700   9.506   9.639
20818SOL    HW164461   0.682   9.531   9.548
20818SOL    HW264462   0.718   9.588   9.684
20819SOL     OW64463   2.196  10.446   4.094
20819SOL    HW164464   2.169  10.459   4.185
20819SOL    HW264465   2.202  10.351   4.084
20820SOL     OW64466   4.018   7.381   1.698
20820SOL    HW164467   4.057   7.417   1.777
20820SOL    HW264468   3.924   7.398   1.707
20821SOL     OW64469   5.944   6.094   2.721
20821SOL    HW164470   5.872   6.073   2.781
20821SOL    HW264471   6.023   6.073   2.770
20822SOL     OW64472   9.124   0.023  10.433
20822SOL    HW164473   9.130   0.025  10.337
20822SOL    HW264474   9.093   0.110  10.457
20823SOL     OW64475   6.936   1.766   4.013
20823SOL    HW164476   6.912   1.850   3.974
20823SOL    HW264477   7.027   1.778   4.042
20824SOL     OW64478   4.515   8.168   0.051
20824SOL    HW164479   4.520   8.097   0.115
20824SOL    HW264480   4.501   8.124  -0.033
20825SOL     OW64481   9.009   5.249   3.031
20825SOL    HW164482   8.992   5.159   3.060
20825SOL    HW264483   8.947   5.263   2.959
20826SOL     OW64484   5.103  10.015   3.950
20826SOL    HW164485   5.159  10.025   3.873
20826SOL    HW264486   5.047  10.092   3.949
20827SOL     OW64487   6.472   9.169   1.976
20827SOL    HW164488   6.532   9.229   1.932
20827SOL    HW264489   6.508   9.082   1.958
20828SOL     OW64490   9.655  10.311   1.676
20828SOL    HW164491   9.589  10.259   1.630
20828SOL    HW264492   9.620  10.322   1.764
20829SOL     OW64493   0.013   8.747   8.745
20829SOL    HW164494  -0.059   8.703   8.699
20829SOL    HW264495   0.080   8.760   8.678
20830SOL     OW64496   0.462   2.250   5.928
20830SOL    HW164497   0.386   2.241   5.870
20830SOL    HW264498   0.425   2.255   6.016
20831SOL     OW64499   4.246   1.719   4.780
20831SOL    HW164500   4.309   1.760   4.720
20831SOL    HW264501   4.300   1.681   4.849
20832SOL     OW64502  10.244  10.801   3.614
20832SOL    HW164503  10.191  10.728   3.645
20832SOL    HW264504  10.256  10.783   3.520
20833SOL     OW64505   6.808  10.244   1.475
20833SOL    HW164506   6.805  10.229   1.569
20833SOL    HW264507   6.795  10.157   1.436
20834SOL     OW64508   3.629   9.321   6.883
20834SOL    HW164509   3.675   9.274   6.813
20834SOL    HW264510   3.645   9.269   6.961
20835SOL     OW64511   2.554   2.016   8.188
20835SOL    HW164512   2.589   2.007   8.276
20835SOL    HW264513   2.482   2.078   8.197
20836SOL     OW64514  10.244   9.193  10.193
20836SOL    HW164515  10.265   9.191  10.099
20836SOL    HW264516  10.303   9.128  10.232
20837SOL     OW64517   8.890  10.203  10.778
20837SOL    HW164518   8.838  10.180  10.701
20837SOL    HW264519   8.966  10.145  10.774
20838SOL     OW64520   1.684   4.747   2.903
20838SOL    HW164521   1.668   4.672   2.961
20838SOL    HW264522   1.747   4.801   2.950
20839SOL     OW64523   1.886   2.664   3.275
20839SOL    HW164524   1.926   2.743   3.240
20839SOL    HW264525   1.844   2.692   3.356
20840SOL     OW64526   0.799   3.011   9.971
20840SOL    HW164527   0.789   3.093   9.923
20840SOL    HW264528   0.716   3.000  10.017
20841SOL     OW64529   0.093   3.937   9.618
20841SOL    HW164530   0.047   3.966   9.697
20841SOL    HW264531   0.169   3.995   9.611
20842SOL     OW64532   6.827  10.690   8.702
20842SOL    HW164533   6.810  10.747   8.777
20842SOL    HW264534   6.904  10.639   8.727
20843SOL     OW64535  10.479   5.190   7.094
20843SOL    HW164536  10.517   5.104   7.073
20843SOL    HW264537  10.530   5.221   7.169
20844SOL     OW64538   7.093   7.495   1.679
20844SOL    HW164539   7.050   7.416   1.645
20844SOL    HW264540   7.183   7.467   1.697
20845SOL     OW64541  11.086  10.938   7.909
20845SOL    HW164542  11.069  10.845   7.893
20845SOL    HW264543  11.161  10.939   7.968
20846SOL     OW64544   5.701   8.851   0.052
20846SOL    HW164545   5.666   8.881   0.136
20846SOL    HW264546   5.655   8.769   0.035
20847SOL     OW64547   3.481   4.372  10.587
20847SOL    HW164548   3.540   4.368  10.511
20847SOL    HW264549   3.402   4.414  10.553
20848SOL     OW64550   0.284   8.734  10.763
20848SOL    HW164551   0.322   8.732  10.851
20848SOL    HW264552   0.304   8.821  10.730
20849SOL     OW64553   5.125   3.336   7.198
20849SOL    HW164554   5.127   3.431   7.198
20849SOL    HW264555   5.057   3.313   7.134
20850SOL     OW64556   8.113   2.616   5.152
20850SOL    HW164557   8.019   2.625   5.166
20850SOL    HW264558   8.123   2.617   5.057
20851SOL     OW64559   3.322   7.112   3.468
20851SOL    HW164560   3.397   7.139   3.415
20851SOL    HW264561   3.344   7.139   3.557
20852SOL     OW64562   5.834   9.183   1.496
20852SOL    HW164563   5.777   9.196   1.572
20852SOL    HW264564   5.789   9.116   1.444
20853SOL     OW64565   2.097   1.605   8.779
20853SOL    HW164566   2.043   1.672   8.819
20853SOL    HW264567   2.134   1.647   8.701
20854SOL     OW64568   0.501   7.997   0.876
20854SOL    HW164569   0.573   7.939   0.850
20854SOL    HW264570   0.450   7.945   0.938
20855SOL     OW64571   8.708   3.803   9.181
20855SOL    HW164572   8.779   3.838   9.234
20855SOL    HW264573   8.653   3.755   9.242
20856SOL     OW64574   5.364   6.959  10.386
20856SOL    HW164575   5.356   6.920  10.473
20856SOL    HW264576   5.361   6.884  10.326
20857SOL     OW64577   7.423   8.404   8.076
20857SOL    HW164578   7.377   8.324   8.103
20857SOL    HW264579   7.361   8.474   8.095
20858SOL     OW64580   7.550   1.206   9.937
20858SOL    HW164581   7.571   1.112   9.941
20858SOL    HW264582   7.458   1.211   9.964
20859SOL     OW64583   2.482   0.157   9.069
20859SOL    HW164584   2.575   0.133   9.072
20859SOL    HW264585   2.481   0.241   9.024
20860SOL     OW64586   2.764   6.617   7.069
20860SOL    HW164587   2.765   6.641   7.161
20860SOL    HW264588   2.759   6.700   7.022
20861SOL     OW64589   1.633   0.484   9.129
20861SOL    HW164590   1.683   0.536   9.192
20861SOL    HW264591   1.673   0.397   9.132
20862SOL     OW64592   5.270   2.354   2.213
20862SOL    HW164593   5.190   2.393   2.248
20862SOL    HW264594   5.239   2.295   2.144
20863SOL     OW64595   3.247   2.178   7.795
20863SOL    HW164596   3.237   2.105   7.856
20863SOL    HW264597   3.163   2.223   7.797
20864SOL     OW64598   1.210  10.175   2.239
20864SOL    HW164599   1.194  10.081   2.228
20864SOL    HW264600   1.290  10.180   2.291
20865SOL     OW64601   2.309   8.938   0.581
20865SOL    HW164602   2.257   8.880   0.524
20865SOL    HW264603   2.340   8.881   0.651
20866SOL     OW64604   8.018   1.651   0.515
20866SOL    HW164605   8.033   1.734   0.471
20866SOL    HW264606   7.992   1.675   0.604
20867SOL     OW64607   3.618   9.335  10.092
20867SOL    HW164608   3.690   9.312  10.034
20867SOL    HW264609   3.647   9.307  10.178
20868SOL     OW64610   7.855   7.721   1.595
20868SOL    HW164611   7.935   7.714   1.542
20868SOL    HW264612   7.884   7.759   1.678
20869SOL     OW64613   9.917   8.063  10.998
20869SOL    HW164614   9.872   8.018  11.069
20869SOL    HW264615   9.847   8.086  10.937
20870SOL     OW64616   3.530   6.473   5.365
20870SOL    HW164617   3.520   6.398   5.424
20870SOL    HW264618   3.449   6.523   5.375
20871SOL     OW64619   1.283  10.691   0.929
20871SOL    HW164620   1.353  10.725   0.985
20871SOL    HW264621   1.329  10.640   0.862
20872SOL     OW64622   7.976   0.038   3.090
20872SOL    HW164623   8.014  -0.049   3.074
20872SOL    HW264624   8.045   0.086   3.136
20873SOL     OW64625   9.066   2.014   2.095
20873SOL    HW164626   9.112   2.035   2.013
20873SOL    HW264627   9.089   1.923   2.112
20874SOL     OW64628   2.287   2.336   1.813
20874SOL    HW164629   2.219   2.274   1.842
20874SOL    HW264630   2.239   2.408   1.773
20875SOL     OW64631   5.968  10.143   1.766
20875SOL    HW164632   5.904  10.182   1.825
20875SOL    HW264633   5.917  10.115   1.689
20876SOL     OW64634   4.095   0.371   3.901
20876SOL    HW164635   4.070   0.370   3.808
20876SOL    HW264636   4.017   0.402   3.946
20877SOL     OW64637   2.839  10.578   8.235
20877SOL    HW164638   2.870  10.487   8.233
20877SOL    HW264639   2.752  10.575   8.195
20878SOL     OW64640   4.657   8.818   0.515
20878SOL    HW164641   4.609   8.884   0.564
20878SOL    HW264642   4.619   8.734   0.543
20879SOL     OW64643   0.361   7.024   1.175
20879SOL    HW164644   0.446   7.000   1.138
20879SOL    HW264645   0.317   7.071   1.104
20880SOL     OW64646   4.693  10.658   9.694
20880SOL    HW164647   4.750  10.730   9.667
20880SOL    HW264648   4.635  10.697   9.759
20881SOL     OW64649   6.800   9.607   5.309
20881SOL    HW164650   6.731   9.670   5.290
20881SOL    HW264651   6.804   9.604   5.404
20882SOL     OW64652   6.010   4.624   3.010
20882SOL    HW164653   5.941   4.687   3.028
20882SOL    HW264654   6.087   4.677   2.988
20883SOL     OW64655  10.034   9.321   4.310
20883SOL    HW164656  10.113   9.319   4.364
20883SOL    HW264657  10.054   9.383   4.240
20884SOL     OW64658  10.365  10.500  10.408
20884SOL    HW164659  10.318  10.452  10.476
20884SOL    HW264660  10.352  10.449  10.328
20885SOL     OW64661   1.177   3.541   6.473
20885SOL    HW164662   1.155   3.456   6.433
20885SOL    HW264663   1.207   3.594   6.399
20886SOL     OW64664   3.169   7.123   3.233
20886SOL    HW164665   3.194   7.210   3.203
20886SOL    HW264666   3.212   7.113   3.318
20887SOL     OW64667   4.121   3.498   8.961
20887SOL    HW164668   4.207   3.470   8.992
20887SOL    HW264669   4.139   3.552   8.884
20888SOL     OW64670   3.963  10.681   2.647
20888SOL    HW164671   4.042  10.636   2.616
20888SOL    HW264672   3.985  10.711   2.735
20889SOL     OW64673   9.416   3.627  10.905
20889SOL    HW164674   9.362   3.695  10.946
20889SOL    HW264675   9.353   3.563  10.871
20890SOL     OW64676   7.965   6.681   2.713
20890SOL    HW164677   7.994   6.710   2.626
20890SOL    HW264678   7.886   6.629   2.695
20891SOL     OW64679   2.683  11.071   3.226
20891SOL    HW164680   2.668  10.977   3.227
20891SOL    HW264681   2.777  11.080   3.243
20892SOL     OW64682  10.685   0.603   2.825
20892SOL    HW164683  10.765   0.652   2.806
20892SOL    HW264684  10.671   0.549   2.747
20893SOL     OW64685   7.057   6.339   0.019
20893SOL    HW164686   7.000   6.355   0.095
20893SOL    HW264687   7.127   6.283   0.054
20894SOL     OW64688   4.501   5.875   9.558
20894SOL    HW164689   4.595   5.882   9.577
20894SOL    HW264690   4.473   5.965   9.543
20895SOL     OW64691   6.134   1.248   1.510
20895SOL    HW164692   6.119   1.326   1.563
20895SOL    HW264693   6.208   1.270   1.454
20896SOL     OW64694   0.124   0.925  11.020
20896SOL    HW164695   0.166   0.956  11.100
20896SOL    HW264696   0.196   0.892  10.966
20897SOL     OW64697   3.965   3.841   2.483
20897SOL    HW164698   4.046   3.822   2.436
20897SOL    HW264699   3.918   3.902   2.426
20898SOL     OW64700   6.752   7.249  10.615
20898SOL    HW164701   6.791   7.161  10.620
20898SOL    HW264702   6.694   7.254  10.691
20899SOL     OW64703   7.660   1.626   3.555
20899SOL    HW164704   7.570   1.640   3.583
20899SOL    HW264705   7.698   1.571   3.623
20900SOL     OW64706   3.625   2.389   2.068
20900SOL    HW164707   3.625   2.320   2.134
20900SOL    HW264708   3.718   2.403   2.048
20901SOL     OW64709   0.238   1.085   1.551
20901SOL    HW164710   0.270   1.001   1.585
20901SOL    HW264711   0.300   1.109   1.482
20902SOL     OW64712  10.446  10.823   7.665
20902SOL    HW164713  10.501  10.822   7.586
20902SOL    HW264714  10.504  10.791   7.734
20903SOL     OW64715   4.203   6.181   1.888
20903SOL    HW164716   4.164   6.149   1.969
20903SOL    HW264717   4.223   6.102   1.838
20904SOL     OW64718   5.713   9.774   3.864
20904SOL    HW164719   5.712   9.683   3.895
20904SOL    HW264720   5.803   9.787   3.833
20905SOL     OW64721   5.158   4.424   4.310
20905SOL    HW164722   5.241   4.396   4.349
20905SOL    HW264723   5.128   4.347   4.260
20906SOL     OW64724   4.059   3.050   7.008
20906SOL    HW164725   4.000   3.106   7.058
20906SOL    HW264726   4.130   3.029   7.068
20907SOL     OW64727   7.413   4.375   7.163
20907SOL    HW164728   7.466   4.440   7.117
20907SOL    HW264729   7.326   4.413   7.167
20908SOL     OW64730   1.986   1.948   6.944
20908SOL    HW164731   1.891   1.948   6.938
20908SOL    HW264732   2.010   1.855   6.948
20909SOL     OW64733   2.458   0.041   9.792
20909SOL    HW164734   2.477  -0.053   9.800
20909SOL    HW264735   2.513   0.082   9.859
20910SOL     OW64736   2.986  10.279   5.620
20910SOL    HW164737   2.905  10.246   5.659
20910SOL    HW264738   3.054  10.219   5.651
20911SOL     OW64739   4.966   4.728   8.887
20911SOL    HW164740   4.873   4.719   8.867
20911SOL    HW264741   5.008   4.736   8.801
20912SOL     OW64742   5.402   4.328   9.374
20912SOL    HW164743   5.365   4.342   9.287
20912SOL    HW264744   5.443   4.411   9.396
20913SOL     OW64745   1.621   1.903   2.036
20913SOL    HW164746   1.661   1.843   1.972
20913SOL    HW264747   1.564   1.847   2.089
20914SOL     OW64748   0.956   7.232   3.402
20914SOL    HW164749   0.942   7.322   3.429
20914SOL    HW264750   0.881   7.184   3.437
20915SOL     OW64751   7.088  10.234   4.616
20915SOL    HW164752   7.090  10.261   4.524
20915SOL    HW264753   7.064  10.313   4.664
20916SOL     OW64754  10.061   4.835   2.367
20916SOL    HW164755  10.027   4.895   2.301
20916SOL    HW264756  10.146   4.871   2.391
20917SOL     OW64757   4.251   8.717   0.533
20917SOL    HW164758   4.196   8.640   0.515
20917SOL    HW264759   4.321   8.683   0.589
20918SOL     OW64760   6.107   6.254   3.903
20918SOL    HW164761   6.024   6.300   3.891
20918SOL    HW264762   6.150   6.300   3.974
20919SOL     OW64763   6.424   1.755   9.535
20919SOL    HW164764   6.480   1.832   9.522
20919SOL    HW264765   6.444   1.698   9.460
20920SOL     OW64766   0.520   6.732  11.093
20920SOL    HW164767   0.610   6.747  11.064
20920SOL    HW264768   0.468   6.796  11.044
20921SOL     OW64769   2.840   9.198   0.879
20921SOL    HW164770   2.852   9.244   0.796
20921SOL    HW264771   2.906   9.129   0.878
20922SOL     OW64772   5.804   7.174   1.564
20922SOL    HW164773   5.898   7.158   1.569
20922SOL    HW264774   5.797   7.268   1.547
20923SOL     OW64775   1.249   4.535   1.039
20923SOL    HW164776   1.223   4.622   1.010
20923SOL    HW264777   1.196   4.475   0.986
20924SOL     OW64778   7.763   0.082   5.711
20924SOL    HW164779   7.856   0.094   5.733
20924SOL    HW264780   7.718   0.082   5.795
20925SOL     OW64781   9.846   9.021   9.918
20925SOL    HW164782   9.902   8.976   9.981
20925SOL    HW264783   9.866   9.114   9.930
20926SOL     OW64784   5.663   8.619   3.497
20926SOL    HW164785   5.666   8.530   3.462
20926SOL    HW264786   5.583   8.622   3.549
20927SOL     OW64787   3.948   8.157   1.615
20927SOL    HW164788   3.857   8.178   1.597
20927SOL    HW264789   3.972   8.094   1.546
20928SOL     OW64790   2.244   1.054   5.476
20928SOL    HW164791   2.184   1.128   5.467
20928SOL    HW264792   2.249   1.016   5.388
20929SOL     OW64793   7.275  11.041   2.971
20929SOL    HW164794   7.237  11.017   2.886
20929SOL    HW264795   7.348  11.099   2.948
20930SOL     OW64796   8.396   8.985   9.608
20930SOL    HW164797   8.339   8.944   9.542
20930SOL    HW264798   8.336   9.028   9.669
20931SOL     OW64799   0.708   8.678  10.835
20931SOL    HW164800   0.787   8.719  10.799
20931SOL    HW264801   0.674   8.625  10.763
20932SOL     OW64802   8.704   9.535   4.116
20932SOL    HW164803   8.679   9.606   4.175
20932SOL    HW264804   8.621   9.498   4.086
20933SOL     OW64805   4.007   5.267   2.717
20933SOL    HW164806   3.914   5.244   2.724
20933SOL    HW264807   4.043   5.202   2.656
20934SOL     OW64808   3.606   0.252   5.632
20934SOL    HW164809   3.670   0.233   5.700
20934SOL    HW264810   3.616   0.180   5.569
20935SOL     OW64811   5.766   5.770   2.224
20935SOL    HW164812   5.804   5.754   2.310
20935SOL    HW264813   5.702   5.839   2.238
20936SOL     OW64814   0.285  10.497   6.670
20936SOL    HW164815   0.347  10.509   6.741
20936SOL    HW264816   0.217  10.441   6.707
20937SOL     OW64817   1.768   4.845   2.533
20937SOL    HW164818   1.700   4.872   2.595
20937SOL    HW264819   1.754   4.751   2.522
20938SOL     OW64820   5.842  10.373   6.845
20938SOL    HW164821   5.918  10.316   6.857
20938SOL    HW264822   5.860  10.419   6.763
20939SOL     OW64823   5.539   0.353   4.016
20939SOL    HW164824   5.507   0.265   4.038
20939SOL    HW264825   5.484   0.380   3.942
20940SOL     OW64826   7.459   7.448   3.919
20940SOL    HW164827   7.501   7.529   3.946
20940SOL    HW264828   7.372   7.474   3.890
20941SOL     OW64829   6.469   2.728   1.189
20941SOL    HW164830   6.402   2.786   1.154
20941SOL    HW264831   6.551   2.775   1.176
20942SOL     OW64832   8.719   0.535   6.315
20942SOL    HW164833   8.685   0.623   6.331
20942SOL    HW264834   8.779   0.545   6.241
20943SOL     OW64835   6.955   8.535   6.298
20943SOL    HW164836   6.971   8.571   6.210
20943SOL    HW264837   6.860   8.526   6.303
20944SOL     OW64838   6.652   9.833   3.979
20944SOL    HW164839   6.720   9.881   4.026
20944SOL    HW264840   6.584   9.897   3.961
20945SOL     OW64841   7.780  10.715   0.195
20945SOL    HW164842   7.876  10.709   0.198
20945SOL    HW264843   7.751  10.684   0.281
20946SOL     OW64844   3.028   0.887   2.141
20946SOL    HW164845   3.098   0.944   2.173
20946SOL    HW264846   3.056   0.863   2.052
20947SOL     OW64847   4.504   2.687   1.072
20947SOL    HW164848   4.523   2.772   1.033
20947SOL    HW264849   4.426   2.702   1.126
20948SOL     OW64850   5.333   2.285   6.070
20948SOL    HW164851   5.345   2.253   5.980
20948SOL    HW264852   5.366   2.375   6.068
20949SOL     OW64853   1.663   6.453  10.726
20949SOL    HW164854   1.703   6.489  10.805
20949SOL    HW264855   1.719   6.484  10.654
20950SOL     OW64856   0.229   2.347   3.496
20950SOL    HW164857   0.248   2.435   3.464
20950SOL    HW264858   0.142   2.354   3.536
20951SOL     OW64859   5.930   9.512   2.557
20951SOL    HW164860   6.009   9.493   2.607
20951SOL    HW264861   5.960   9.519   2.466
20952SOL     OW64862   5.798   2.022   3.155
20952SOL    HW164863   5.754   2.090   3.205
20952SOL    HW264864   5.802   2.056   3.066
20953SOL     OW64865   9.453   3.896  10.406
20953SOL    HW164866   9.434   3.830  10.339
20953SOL    HW264867   9.504   3.849  10.472
20954SOL     OW64868   4.111   2.114   3.339
20954SOL    HW164869   4.114   2.191   3.282
20954SOL    HW264870   4.131   2.147   3.426
20955SOL     OW64871   0.712   7.403  10.492
20955SOL    HW164872   0.808   7.406  10.492
20955SOL    HW264873   0.691   7.324  10.542
20956SOL     OW64874   6.088   6.591   4.365
20956SOL    HW164875   6.124   6.667   4.319
20956SOL    HW264876   6.000   6.618   4.390
20957SOL     OW64877   7.528  10.243   6.811
20957SOL    HW164878   7.609  10.269   6.767
20957SOL    HW264879   7.476  10.323   6.815
20958SOL     OW64880   1.158   2.770   2.699
20958SOL    HW164881   1.070   2.754   2.664
20958SOL    HW264882   1.151   2.851   2.748
20959SOL     OW64883   1.048   2.173   2.690
20959SOL    HW164884   0.964   2.206   2.658
20959SOL    HW264885   1.027   2.129   2.772
20960SOL     OW64886  10.492   5.922   1.545
20960SOL    HW164887  10.504   5.829   1.525
20960SOL    HW264888  10.457   5.923   1.634
20961SOL     OW64889   3.203   7.630   8.939
20961SOL    HW164890   3.163   7.716   8.930
20961SOL    HW264891   3.257   7.620   8.860
20962SOL     OW64892   1.231   1.476   7.470
20962SOL    HW164893   1.246   1.570   7.474
20962SOL    HW264894   1.254   1.452   7.380
20963SOL     OW64895   1.835   9.120   3.055
20963SOL    HW164896   1.928   9.137   3.042
20963SOL    HW264897   1.821   9.133   3.148
20964SOL     OW64898   3.473   7.396   3.118
20964SOL    HW164899   3.431   7.422   3.200
20964SOL    HW264900   3.400   7.377   3.059
20965SOL     OW64901   9.407   2.706   8.615
20965SOL    HW164902   9.349   2.730   8.543
20965SOL    HW264903   9.495   2.714   8.578
20966SOL     OW64904   5.715   3.510   7.944
20966SOL    HW164905   5.653   3.537   7.876
20966SOL    HW264906   5.760   3.590   7.969
20967SOL     OW64907   6.225   6.560   2.285
20967SOL    HW164908   6.204   6.627   2.350
20967SOL    HW264909   6.143   6.543   2.239
20968SOL     OW64910   9.347   7.974   8.806
20968SOL    HW164911   9.283   7.903   8.798
20968SOL    HW264912   9.422   7.943   8.754
20969SOL     OW64913   3.052   5.270   4.913
20969SOL    HW164914   3.125   5.301   4.967
20969SOL    HW264915   3.037   5.180   4.942
20970SOL     OW64916   9.466  10.996   5.097
20970SOL    HW164917   9.478  10.926   5.161
20970SOL    HW264918   9.372  11.014   5.097
20971SOL     OW64919  10.930   5.647   0.710
20971SOL    HW164920  11.009   5.603   0.742
20971SOL    HW264921  10.899   5.698   0.784
20972SOL     OW64922   6.559   4.857   3.874
20972SOL    HW164923   6.497   4.925   3.847
20972SOL    HW264924   6.504   4.781   3.895
20973SOL     OW64925   9.418   3.075   4.534
20973SOL    HW164926   9.341   3.118   4.498
20973SOL    HW264927   9.417   2.988   4.494
20974SOL     OW64928   6.377   7.797  10.527
20974SOL    HW164929   6.447   7.733  10.545
20974SOL    HW264930   6.333   7.809  10.611
20975SOL     OW64931   9.114   8.634   0.846
20975SOL    HW164932   9.028   8.673   0.861
20975SOL    HW264933   9.145   8.607   0.932
20976SOL     OW64934   5.667   1.034   5.320
20976SOL    HW164935   5.726   1.078   5.381
20976SOL    HW264936   5.630   0.961   5.370
20977SOL     OW64937   7.083   0.418   7.050
20977SOL    HW164938   7.092   0.434   7.144
20977SOL    HW264939   7.170   0.437   7.014
20978SOL     OW64940   1.832   9.888   3.037
20978SOL    HW164941   1.738   9.904   3.047
20978SOL    HW264942   1.838   9.800   2.999
20979SOL     OW64943   3.291   8.469   1.090
20979SOL    HW164944   3.330   8.383   1.070
20979SOL    HW264945   3.251   8.457   1.176
20980SOL     OW64946   7.200  10.513   7.033
20980SOL    HW164947   7.140  10.565   6.980
20980SOL    HW264948   7.235  10.447   6.972
20981SOL     OW64949  10.226   5.738   5.624
20981SOL    HW164950  10.277   5.736   5.705
20981SOL    HW264951  10.142   5.700   5.648
20982SOL     OW64952   7.880   3.032   1.751
20982SOL    HW164953   7.858   3.001   1.839
20982SOL    HW264954   7.877   3.127   1.758
20983SOL     OW64955   9.464   5.333   3.126
20983SOL    HW164956   9.522   5.350   3.052
20983SOL    HW264957   9.504   5.258   3.171
20984SOL     OW64958  10.986   1.707   0.308
20984SOL    HW164959  11.079   1.728   0.305
20984SOL    HW264960  10.980   1.631   0.366
20985SOL     OW64961   7.189   4.197   2.569
20985SOL    HW164962   7.129   4.271   2.575
20985SOL    HW264963   7.157   4.147   2.494
20986SOL     OW64964   2.151   9.537   1.246
20986SOL    HW164965   2.216   9.470   1.268
20986SOL    HW264966   2.134   9.582   1.328
20987SOL     OW64967   3.464   1.896  10.235
20987SOL    HW164968   3.552   1.885  10.271
20987SOL    HW264969   3.455   1.824  10.172
20988SOL     OW64970   6.073   7.429   3.107
20988SOL    HW164971   6.028   7.509   3.082
20988SOL    HW264972   6.164   7.443   3.080
20989SOL     OW64973   1.444   9.668  10.580
20989SOL    HW164974   1.417   9.609  10.650
20989SOL    HW264975   1.487   9.610  10.516
20990SOL     OW64976   1.378   0.274   8.830
20990SOL    HW164977   1.388   0.207   8.898
20990SOL    HW264978   1.428   0.349   8.862
20991SOL     OW64979   0.207   9.738   4.551
20991SOL    HW164980   0.140   9.754   4.484
20991SOL    HW264981   0.213   9.820   4.599
20992SOL     OW64982   7.717   8.823   3.250
20992SOL    HW164983   7.684   8.829   3.160
20992SOL    HW264984   7.749   8.733   3.258
20993SOL     OW64985   5.696   7.968   5.465
20993SOL    HW164986   5.662   7.992   5.378
20993SOL    HW264987   5.637   7.899   5.495
20994SOL     OW64988   8.683   7.450   5.190
20994SOL    HW164989   8.743   7.388   5.147
20994SOL    HW264990   8.741   7.513   5.233
20995SOL     OW64991  10.171   6.002   9.679
20995SOL    HW164992  10.199   5.986   9.588
20995SOL    HW264993  10.239   6.058   9.715
20996SOL     OW64994   8.860  10.008   1.435
20996SOL    HW164995   8.789  10.051   1.387
20996SOL    HW264996   8.915   9.968   1.367
20997SOL     OW64997   0.920  10.872   3.779
20997SOL    HW164998   0.992  10.812   3.796
20997SOL    HW264999   0.871  10.875   3.861
20998SOL     OW65000   5.955  10.787  10.518
20998SOL    HW165001   5.891  10.770  10.449
20998SOL    HW265002   6.039  10.765  10.478
20999SOL     OW65003   2.302   0.005   0.842
20999SOL    HW165004   2.334  -0.006   0.752
20999SOL    HW265005   2.265   0.093   0.844
21000SOL     OW65006   9.043  10.685   2.559
21000SOL    HW165007   9.113  10.717   2.502
21000SOL    HW265008   8.963  10.701   2.509
21001SOL     OW65009  10.230   4.748   4.345
21001SOL    HW165010  10.284   4.773   4.269
21001SOL    HW265011  10.261   4.660   4.368
21002SOL     OW65012   8.979   1.283   0.210
21002SOL    HW165013   9.005   1.231   0.286
21002SOL    HW265014   8.927   1.222   0.157
21003SOL     OW65015   5.651  10.811  10.590
21003SOL    HW165016   5.694  10.834  10.507
21003SOL    HW265017   5.664  10.887  10.646
21004SOL     OW65018   7.189   1.904   9.324
21004SOL    HW165019   7.277   1.933   9.301
21004SOL    HW265020   7.201   1.851   9.403
21005SOL     OW65021   2.271  10.110   1.187
21005SOL    HW165022   2.277  10.195   1.143
21005SOL    HW265023   2.316  10.122   1.270
21006SOL     OW65024   2.937   8.982   6.192
21006SOL    HW165025   2.933   8.911   6.127
21006SOL    HW265026   2.918   8.939   6.275
21007SOL     OW65027   5.879   8.868  10.906
21007SOL    HW165028   5.836   8.879  10.990
21007SOL    HW265029   5.903   8.956  10.878
21008SOL     OW65030   5.860   6.230   4.479
21008SOL    HW165031   5.937   6.187   4.440
21008SOL    HW265032   5.785   6.186   4.437
21009SOL     OW65033   9.448  10.848  10.786
21009SOL    HW165034   9.498  10.823  10.708
21009SOL    HW265035   9.364  10.879  10.751
21010SOL     OW65036   1.482   0.221   9.610
21010SOL    HW165037   1.485   0.125   9.619
21010SOL    HW265038   1.403   0.247   9.658
21011SOL     OW65039   3.979   7.171   2.192
21011SOL    HW165040   3.945   7.081   2.193
21011SOL    HW265041   3.915   7.220   2.141
21012SOL     OW65042   3.152   8.946   7.013
21012SOL    HW165043   3.068   8.959   6.970
21012SOL    HW265044   3.188   9.034   7.023
21013SOL     OW65045   1.992  10.053   0.884
21013SOL    HW165046   1.964  10.141   0.908
21013SOL    HW265047   1.940  10.031   0.806
21014SOL     OW65048   1.432   7.478   2.473
21014SOL    HW165049   1.399   7.421   2.542
21014SOL    HW265050   1.517   7.509   2.505
21015SOL     OW65051   0.055   1.761   8.622
21015SOL    HW165052   0.148   1.779   8.616
21015SOL    HW265053   0.015   1.845   8.642
21016SOL     OW65054   5.268   0.277   7.622
21016SOL    HW165055   5.263   0.188   7.586
21016SOL    HW265056   5.346   0.276   7.678
21017SOL     OW65057   0.884   9.206   3.534
21017SOL    HW165058   0.800   9.218   3.578
21017SOL    HW265059   0.947   9.193   3.604
21018SOL     OW65060   3.509   4.020   5.099
21018SOL    HW165061   3.434   4.076   5.119
21018SOL    HW265062   3.511   4.016   5.003
21019SOL     OW65063   2.649   3.352   2.272
21019SOL    HW165064   2.716   3.384   2.212
21019SOL    HW265065   2.579   3.417   2.267
21020SOL     OW65066   2.922   0.383   4.317
21020SOL    HW165067   3.008   0.425   4.322
21020SOL    HW265068   2.886   0.390   4.405
21021SOL     OW65069   5.057   8.517   4.155
21021SOL    HW165070   5.146   8.530   4.121
21021SOL    HW265071   5.006   8.588   4.117
21022SOL     OW65072   4.890   0.700   5.705
21022SOL    HW165073   4.890   0.618   5.656
21022SOL    HW265074   4.841   0.761   5.650
21023SOL     OW65075   7.327   9.553   6.374
21023SOL    HW165076   7.272   9.630   6.366
21023SOL    HW265077   7.273   9.489   6.420
21024SOL     OW65078   5.478   9.958   3.182
21024SOL    HW165079   5.532  10.021   3.135
21024SOL    HW265080   5.390   9.971   3.147
21025SOL     OW65081   2.524   9.154   5.061
21025SOL    HW165082   2.551   9.198   4.980
21025SOL    HW265083   2.576   9.073   5.062
21026SOL     OW65084   5.291   4.724   2.600
21026SOL    HW165085   5.282   4.700   2.507
21026SOL    HW265086   5.226   4.792   2.614
21027SOL     OW65087   0.008   0.844   3.211
21027SOL    HW165088   0.026   0.819   3.120
21027SOL    HW265089  -0.057   0.780   3.241
21028SOL     OW65090  10.101   6.466   2.021
21028SOL    HW165091  10.016   6.442   1.984
21028SOL    HW265092  10.134   6.384   2.059
21029SOL     OW65093   8.534   7.471   5.996
21029SOL    HW165094   8.439   7.471   6.001
21029SOL    HW265095   8.555   7.389   5.950
21030SOL     OW65096   6.976   8.575   6.015
21030SOL    HW165097   7.050   8.627   5.984
21030SOL    HW265098   6.910   8.583   5.946
21031SOL     OW65099   1.050   6.768   5.044
21031SOL    HW165100   1.111   6.713   5.093
21031SOL    HW265101   1.014   6.828   5.109
21032SOL     OW65102   1.222   8.952   0.095
21032SOL    HW165103   1.266   8.906   0.167
21032SOL    HW265104   1.131   8.922   0.100
21033SOL     OW65105   5.265   6.332   4.957
21033SOL    HW165106   5.202   6.286   5.012
21033SOL    HW265107   5.348   6.286   4.972
21034SOL     OW65108   5.755   0.051   8.019
21034SOL    HW165109   5.801  -0.033   8.009
21034SOL    HW265110   5.716   0.066   7.933
21035SOL     OW65111   0.107   5.989   6.302
21035SOL    HW165112   0.127   5.897   6.322
21035SOL    HW265113   0.052   5.985   6.224
21036SOL     OW65114  10.539   7.246   7.245
21036SOL    HW165115  10.543   7.318   7.182
21036SOL    HW265116  10.584   7.279   7.322
21037SOL     OW65117   4.109   1.772   3.077
21037SOL    HW165118   4.086   1.864   3.075
21037SOL    HW265119   4.202   1.771   3.099
21038SOL     OW65120   5.244   0.445   2.554
21038SOL    HW165121   5.162   0.438   2.602
21038SOL    HW265122   5.218   0.474   2.466
21039SOL     OW65123   4.624   6.582   3.289
21039SOL    HW165124   4.552   6.614   3.343
21039SOL    HW265125   4.668   6.661   3.258
21040SOL     OW65126   8.392  10.734   5.140
21040SOL    HW165127   8.480  10.727   5.104
21040SOL    HW265128   8.394  10.814   5.193
21041SOL     OW65129   7.656   8.461   0.493
21041SOL    HW165130   7.644   8.462   0.398
21041SOL    HW265131   7.631   8.372   0.519
21042SOL     OW65132  10.495   4.537   2.182
21042SOL    HW165133  10.539   4.575   2.258
21042SOL    HW265134  10.481   4.445   2.206
21043SOL     OW65135   5.206   1.922   4.374
21043SOL    HW165136   5.224   1.898   4.465
21043SOL    HW265137   5.287   1.965   4.344
21044SOL     OW65138   6.359   9.497   1.631
21044SOL    HW165139   6.346   9.573   1.574
21044SOL    HW265140   6.289   9.503   1.696
21045SOL     OW65141   8.394   9.465   0.101
21045SOL    HW165142   8.321   9.526   0.112
21045SOL    HW265143   8.421   9.476   0.010
21046SOL     OW65144   1.852   8.701   4.889
21046SOL    HW165145   1.817   8.617   4.919
21046SOL    HW265146   1.916   8.726   4.956
21047SOL     OW65147   3.449   7.690   5.183
21047SOL    HW165148   3.426   7.682   5.275
21047SOL    HW265149   3.391   7.628   5.138
21048SOL     OW65150  10.058   7.211   5.910
21048SOL    HW165151  10.006   7.142   5.868
21048SOL    HW265152  10.097   7.259   5.837
21049SOL     OW65153   3.854   3.755   1.459
21049SOL    HW165154   3.869   3.840   1.419
21049SOL    HW265155   3.821   3.700   1.387
21050SOL     OW65156   1.664   7.152   2.200
21050SOL    HW165157   1.631   7.240   2.215
21050SOL    HW265158   1.658   7.109   2.285
21051SOL     OW65159   2.646   3.476   6.326
21051SOL    HW165160   2.707   3.530   6.376
21051SOL    HW265161   2.608   3.536   6.262
21052SOL     OW65162   1.466   9.161   0.684
21052SOL    HW165163   1.388   9.110   0.663
21052SOL    HW265164   1.433   9.238   0.729
21053SOL     OW65165   6.954   7.807   2.302
21053SOL    HW165166   6.989   7.859   2.229
21053SOL    HW265167   7.019   7.816   2.372
21054SOL     OW65168   3.404   0.787   4.594
21054SOL    HW165169   3.499   0.796   4.605
21054SOL    HW265170   3.387   0.821   4.506
21055SOL     OW65171   8.094   4.644   5.896
21055SOL    HW165172   8.082   4.557   5.934
21055SOL    HW265173   8.035   4.645   5.820
21056SOL     OW65174   2.129   7.264   9.005
21056SOL    HW165175   2.176   7.180   9.005
21056SOL    HW265176   2.092   7.271   9.093
21057SOL     OW65177  10.863   2.773   3.828
21057SOL    HW165178  10.931   2.835   3.855
21057SOL    HW265179  10.911   2.702   3.785
21058SOL     OW65180   6.862   9.522   2.456
21058SOL    HW165181   6.788   9.533   2.515
21058SOL    HW265182   6.847   9.586   2.386
21059SOL     OW65183   4.375   9.883   6.172
21059SOL    HW165184   4.466   9.889   6.144
21059SOL    HW265185   4.332   9.957   6.129
21060SOL     OW65186   9.262   7.742   4.083
21060SOL    HW165187   9.276   7.775   3.994
21060SOL    HW265188   9.169   7.754   4.099
21061SOL     OW65189   6.972   3.558   0.267
21061SOL    HW165190   6.883   3.522   0.265
21061SOL    HW265191   6.987   3.591   0.178
21062SOL     OW65192   5.323   7.113   3.558
21062SOL    HW165193   5.313   7.049   3.628
21062SOL    HW265194   5.368   7.187   3.599
21063SOL     OW65195   2.032   4.248   6.612
21063SOL    HW165196   2.027   4.221   6.520
21063SOL    HW265197   2.094   4.321   6.612
21064SOL     OW65198   1.356   6.679   2.256
21064SOL    HW165199   1.418   6.752   2.252
21064SOL    HW265200   1.382   6.630   2.334
21065SOL     OW65201   2.908   1.613   8.576
21065SOL    HW165202   2.900   1.552   8.502
21065SOL    HW265203   2.872   1.565   8.650
21066SOL     OW65204   4.434   5.256   5.534
21066SOL    HW165205   4.428   5.175   5.585
21066SOL    HW265206   4.527   5.264   5.513
21067SOL     OW65207   1.642   6.738   2.164
21067SOL    HW165208   1.597   6.665   2.120
21067SOL    HW265209   1.657   6.706   2.253
21068SOL     OW65210   5.240   3.345   2.725
21068SOL    HW165211   5.205   3.333   2.636
21068SOL    HW265212   5.254   3.256   2.757
21069SOL     OW65213   1.744   8.371   4.167
21069SOL    HW165214   1.840   8.374   4.160
21069SOL    HW265215   1.727   8.354   4.259
21070SOL     OW65216   5.390   2.071   1.558
21070SOL    HW165217   5.302   2.049   1.526
21070SOL    HW265218   5.434   2.110   1.482
21071SOL     OW65219   6.190   7.366   8.609
21071SOL    HW165220   6.126   7.425   8.569
21071SOL    HW265221   6.166   7.364   8.701
21072SOL     OW65222   3.556   0.430   7.374
21072SOL    HW165223   3.584   0.517   7.402
21072SOL    HW265224   3.495   0.401   7.441
21073SOL     OW65225   1.972   4.967   2.226
21073SOL    HW165226   2.028   4.936   2.155
21073SOL    HW265227   1.980   4.900   2.293
21074SOL     OW65228   9.520   1.476   0.879
21074SOL    HW165229   9.576   1.403   0.852
21074SOL    HW265230   9.521   1.473   0.974
21075SOL     OW65231   6.060   6.723   4.950
21075SOL    HW165232   6.025   6.808   4.924
21075SOL    HW265233   5.993   6.685   5.007
21076SOL     OW65234   5.052   0.070   2.905
21076SOL    HW165235   5.133   0.086   2.954
21076SOL    HW265236   5.073  -0.004   2.847
21077SOL     OW65237   0.541   5.853   8.991
21077SOL    HW165238   0.608   5.843   9.059
21077SOL    HW265239   0.579   5.810   8.914
21078SOL     OW65240   9.076   6.383   3.764
21078SOL    HW165241   8.985   6.391   3.792
21078SOL    HW265242   9.101   6.293   3.788
21079SOL     OW65243   8.581   8.324   3.449
21079SOL    HW165244   8.645   8.367   3.393
21079SOL    HW265245   8.513   8.294   3.388
21080SOL     OW65246   4.080   9.043  10.805
21080SOL    HW165247   4.142   9.033  10.733
21080SOL    HW265248   4.102   8.972  10.866
21081SOL     OW65249   5.316   4.385   6.906
21081SOL    HW165250   5.267   4.309   6.939
21081SOL    HW265251   5.408   4.357   6.909
21082SOL     OW65252   6.266   5.984   4.114
21082SOL    HW165253   6.297   6.015   4.198
21082SOL    HW265254   6.322   5.909   4.094
21083SOL     OW65255   3.608   5.999   2.507
21083SOL    HW165256   3.527   5.951   2.524
21083SOL    HW265257   3.677   5.946   2.548
21084SOL     OW65258   5.888   9.910   4.099
21084SOL    HW165259   5.912   9.817   4.098
21084SOL    HW265260   5.793   9.910   4.112
21085SOL     OW65261   2.475  10.376   3.604
21085SOL    HW165262   2.549  10.355   3.661
21085SOL    HW265263   2.514  10.390   3.517
21086SOL     OW65264   8.355   0.926   6.987
21086SOL    HW165265   8.327   0.981   7.060
21086SOL    HW265266   8.375   0.841   7.027
21087SOL     OW65267   5.860  10.714   7.947
21087SOL    HW165268   5.880  10.643   8.008
21087SOL    HW265269   5.939  10.768   7.946
21088SOL     OW65270   0.443   0.936   0.327
21088SOL    HW165271   0.449   0.892   0.242
21088SOL    HW265272   0.493   0.880   0.386
21089SOL     OW65273   2.363   3.728   5.159
21089SOL    HW165274   2.382   3.798   5.096
21089SOL    HW265275   2.278   3.750   5.196
21090SOL     OW65276   8.803   8.096   2.614
21090SOL    HW165277   8.717   8.119   2.579
21090SOL    HW265278   8.784   8.038   2.688
21091SOL     OW65279  10.499   4.329   4.626
21091SOL    HW165280  10.518   4.268   4.554
21091SOL    HW265281  10.534   4.285   4.703
21092SOL     OW65282   7.722   7.873   3.809
21092SOL    HW165283   7.663   7.865   3.734
21092SOL    HW265284   7.796   7.816   3.787
21093SOL     OW65285   8.560  10.038   3.592
21093SOL    HW165286   8.543   9.984   3.669
21093SOL    HW265287   8.655  10.033   3.580
21094SOL     OW65288   8.130   5.253   2.237
21094SOL    HW165289   8.047   5.273   2.280
21094SOL    HW265290   8.115   5.273   2.144
21095SOL     OW65291   1.061   5.280   9.209
21095SOL    HW165292   1.040   5.308   9.120
21095SOL    HW265293   1.155   5.298   9.218
21096SOL     OW65294   6.733   1.703   5.605
21096SOL    HW165295   6.685   1.761   5.663
21096SOL    HW265296   6.731   1.617   5.648
21097SOL     OW65297   1.926   9.329  11.044
21097SOL    HW165298   1.957   9.324  11.134
21097SOL    HW265299   1.925   9.422  11.024
21098SOL     OW65300   3.851   0.474   4.573
21098SOL    HW165301   3.930   0.520   4.601
21098SOL    HW265302   3.804   0.455   4.654
21099SOL     OW65303   4.426   8.580   0.292
21099SOL    HW165304   4.333   8.591   0.312
21099SOL    HW265305   4.439   8.629   0.211
21100SOL     OW65306   4.172   3.308   1.202
21100SOL    HW165307   4.244   3.360   1.238
21100SOL    HW265308   4.170   3.331   1.109
21101SOL     OW65309   7.247   6.475   7.761
21101SOL    HW165310   7.201   6.391   7.763
21101SOL    HW265311   7.182   6.539   7.788
21102SOL     OW65312   8.105  10.941  10.562
21102SOL    HW165313   8.130  10.853  10.535
21102SOL    HW265314   8.054  10.975  10.488
21103SOL     OW65315   3.642   2.027   2.029
21103SOL    HW165316   3.652   2.059   2.118
21103SOL    HW265317   3.729   2.038   1.989
21104SOL     OW65318   9.833   7.976   4.513
21104SOL    HW165319   9.914   7.925   4.508
21104SOL    HW265320   9.840   8.040   4.442
21105SOL     OW65321   7.984  10.001   1.432
21105SOL    HW165322   7.965   9.913   1.397
21105SOL    HW265323   7.901  10.030   1.470
21106SOL     OW65324   5.063   7.770   7.443
21106SOL    HW165325   4.977   7.785   7.482
21106SOL    HW265326   5.060   7.818   7.360
21107SOL     OW65327   9.605   1.585   5.085
21107SOL    HW165328   9.653   1.502   5.085
21107SOL    HW265329   9.517   1.561   5.113
21108SOL     OW65330   4.774   5.902   9.550
21108SOL    HW165331   4.818   5.987   9.558
21108SOL    HW265332   4.824   5.844   9.607
21109SOL     OW65333   7.126  11.042   0.798
21109SOL    HW165334   7.221  11.047   0.809
21109SOL    HW265335   7.098  10.974   0.859
21110SOL     OW65336   2.086   9.771   2.491
21110SOL    HW165337   2.019   9.706   2.512
21110SOL    HW265338   2.145   9.769   2.566
21111SOL     OW65339   8.819  11.015   5.880
21111SOL    HW165340   8.894  11.019   5.939
21111SOL    HW265341   8.858  11.007   5.793
21112SOL     OW65342   3.905   0.002   2.541
21112SOL    HW165343   3.981   0.051   2.572
21112SOL    HW265344   3.876   0.049   2.463
21113SOL     OW65345   7.457  10.499   3.409
21113SOL    HW165346   7.479  10.406   3.414
21113SOL    HW265347   7.406  10.516   3.488
21114SOL     OW65348   1.302   1.954   2.222
21114SOL    HW165349   1.337   1.990   2.303
21114SOL    HW265350   1.278   2.031   2.170
21115SOL     OW65351   6.203   5.571   3.052
21115SOL    HW165352   6.157   5.503   3.003
21115SOL    HW265353   6.213   5.643   2.989
21116SOL     OW65354  10.508  11.014   7.119
21116SOL    HW165355  10.419  11.048   7.128
21116SOL    HW265356  10.542  11.010   7.208
21117SOL     OW65357   0.156   9.222   3.676
21117SOL    HW165358   0.179   9.277   3.601
21117SOL    HW265359   0.227   9.158   3.682
21118SOL     OW65360   3.609   6.903   9.394
21118SOL    HW165361   3.537   6.844   9.419
21118SOL    HW265362   3.568   6.989   9.386
21119SOL     OW65363   0.094   7.659   3.651
21119SOL    HW165364   0.110   7.601   3.725
21119SOL    HW265365   0.181   7.677   3.615
21120SOL     OW65366   5.389   6.298   3.604
21120SOL    HW165367   5.464   6.294   3.663
21120SOL    HW265368   5.356   6.208   3.601
21121SOL     OW65369   2.334   3.141   4.699
21121SOL    HW165370   2.322   3.053   4.663
21121SOL    HW265371   2.429   3.149   4.710
21122SOL     OW65372   1.011   0.048   3.876
21122SOL    HW165373   1.094   0.071   3.833
21122SOL    HW265374   1.033  -0.025   3.934
21123SOL     OW65375   6.518   8.649   3.442
21123SOL    HW165376   6.522   8.726   3.386
21123SOL    HW265377   6.443   8.599   3.409
21124SOL     OW65378   0.269   2.261   2.044
21124SOL    HW165379   0.188   2.255   1.993
21124SOL    HW265380   0.259   2.340   2.096
21125SOL     OW65381   7.965   0.881   0.461
21125SOL    HW165382   7.970   0.797   0.415
21125SOL    HW265383   7.881   0.918   0.434
21126SOL     OW65384  10.785   9.870   5.801
21126SOL    HW165385  10.707   9.906   5.758
21126SOL    HW265386  10.859   9.907   5.752
21127SOL     OW65387   0.979   9.237   4.146
21127SOL    HW165388   0.909   9.183   4.108
21127SOL    HW265389   0.980   9.316   4.092
21128SOL     OW65390   3.198   9.183   7.411
21128SOL    HW165391   3.226   9.234   7.335
21128SOL    HW265392   3.280   9.160   7.455
21129SOL     OW65393   4.039   2.313   7.406
21129SOL    HW165394   4.084   2.332   7.323
21129SOL    HW265395   4.061   2.222   7.425
21130SOL     OW65396   3.548   0.818   8.530
21130SOL    HW165397   3.567   0.751   8.464
21130SOL    HW265398   3.453   0.830   8.525
21131SOL     OW65399   6.267   8.183   9.819
21131SOL    HW165400   6.214   8.262   9.827
21131SOL    HW265401   6.351   8.214   9.784
21132SOL     OW65402   5.799   5.900   9.902
21132SOL    HW165403   5.816   5.830   9.965
21132SOL    HW265404   5.886   5.934   9.880
21133SOL     OW65405   7.359   0.228  10.893
21133SOL    HW165406   7.362   0.217  10.798
21133SOL    HW265407   7.446   0.199  10.922
21134SOL     OW65408   7.608  10.397   6.522
21134SOL    HW165409   7.668  10.369   6.452
21134SOL    HW265410   7.665  10.414   6.597
21135SOL     OW65411  10.075   2.053   6.380
21135SOL    HW165412  10.097   2.081   6.291
21135SOL    HW265413   9.982   2.071   6.388
21136SOL     OW65414   2.145   3.254   6.655
21136SOL    HW165415   2.054   3.225   6.663
21136SOL    HW265416   2.172   3.223   6.568
21137SOL     OW65417  10.514   8.085   7.699
21137SOL    HW165418  10.587   8.092   7.637
21137SOL    HW265419  10.438   8.115   7.649
21138SOL     OW65420   6.526   0.852   2.304
21138SOL    HW165421   6.474   0.855   2.384
21138SOL    HW265422   6.593   0.786   2.321
21139SOL     OW65423   6.212   5.356   0.302
21139SOL    HW165424   6.141   5.406   0.262
21139SOL    HW265425   6.209   5.380   0.394
21140SOL     OW65426   4.272   1.438   4.577
21140SOL    HW165427   4.291   1.492   4.653
21140SOL    HW265428   4.322   1.478   4.506
21141SOL     OW65429   1.627   6.055   7.777
21141SOL    HW165430   1.691   6.034   7.845
21141SOL    HW265431   1.662   6.013   7.698
21142SOL     OW65432  10.996  10.526   0.870
21142SOL    HW165433  10.905  10.540   0.894
21142SOL    HW265434  11.012  10.434   0.892
21143SOL     OW65435   9.664   8.915   5.683
21143SOL    HW165436   9.695   8.933   5.771
21143SOL    HW265437   9.732   8.952   5.626
21144SOL     OW65438   2.173  10.276   8.955
21144SOL    HW165439   2.088  10.247   8.921
21144SOL    HW265440   2.235  10.212   8.919
21145SOL     OW65441   2.713   6.630   4.108
21145SOL    HW165442   2.629   6.675   4.100
21145SOL    HW265443   2.710   6.589   4.194
21146SOL     OW65444   6.794   3.839   3.132
21146SOL    HW165445   6.850   3.906   3.170
21146SOL    HW265446   6.845   3.758   3.140
21147SOL     OW65447   9.896   0.057   4.068
21147SOL    HW165448   9.809   0.087   4.093
21147SOL    HW265449   9.918   0.108   3.990
21148SOL     OW65450   6.632   8.523   7.336
21148SOL    HW165451   6.639   8.461   7.262
21148SOL    HW265452   6.693   8.489   7.401
21149SOL     OW65453   3.494   0.283   5.136
21149SOL    HW165454   3.535   0.200   5.111
21149SOL    HW265455   3.437   0.260   5.209
21150SOL     OW65456   3.704   9.551   5.750
21150SOL    HW165457   3.642   9.620   5.772
21150SOL    HW265458   3.731   9.570   5.660
21151SOL     OW65459   5.343   9.715   6.399
21151SOL    HW165460   5.351   9.810   6.397
21151SOL    HW265461   5.261   9.699   6.445
21152SOL     OW65462   9.108   1.213   5.215
21152SOL    HW165463   9.186   1.187   5.264
21152SOL    HW265464   9.055   1.133   5.211
21153SOL     OW65465   1.260   0.616   2.099
21153SOL    HW165466   1.328   0.627   2.032
21153SOL    HW265467   1.209   0.697   2.095
21154SOL     OW65468   1.764   1.544   9.575
21154SOL    HW165469   1.772   1.558   9.669
21154SOL    HW265470   1.762   1.448   9.565
21155SOL     OW65471   0.263   8.413   6.044
21155SOL    HW165472   0.226   8.485   6.095
21155SOL    HW265473   0.325   8.455   5.984
21156SOL     OW65474   4.812   3.011   6.578
21156SOL    HW165475   4.860   3.093   6.568
21156SOL    HW265476   4.855   2.951   6.516
21157SOL     OW65477   6.910   7.186   5.056
21157SOL    HW165478   6.939   7.130   4.984
21157SOL    HW265479   6.874   7.263   5.013
21158SOL     OW65480  11.042   4.776   5.960
21158SOL    HW165481  10.995   4.693   5.974
21158SOL    HW265482  11.133   4.749   5.944
21159SOL     OW65483   5.438  10.905   2.402
21159SOL    HW165484   5.491  10.829   2.378
21159SOL    HW265485   5.472  10.976   2.347
21160SOL     OW65486   3.800   4.772   4.882
21160SOL    HW165487   3.762   4.733   4.803
21160SOL    HW265488   3.745   4.740   4.953
21161SOL     OW65489   1.332   4.007   4.835
21161SOL    HW165490   1.348   4.087   4.885
21161SOL    HW265491   1.410   3.953   4.850
21162SOL     OW65492   6.007   6.325   8.833
21162SOL    HW165493   6.097   6.356   8.821
21162SOL    HW265494   5.976   6.306   8.744
21163SOL     OW65495   2.340  10.346   1.141
21163SOL    HW165496   2.435  10.348   1.128
21163SOL    HW265497   2.316  10.437   1.157
21164SOL     OW65498   6.012   7.802   0.745
21164SOL    HW165499   6.078   7.824   0.679
21164SOL    HW265500   5.934   7.851   0.718
21165SOL     OW65501   8.281   1.441   4.250
21165SOL    HW165502   8.301   1.476   4.163
21165SOL    HW265503   8.353   1.380   4.268
21166SOL     OW65504   8.293   3.859   8.642
21166SOL    HW165505   8.219   3.920   8.642
21166SOL    HW265506   8.283   3.809   8.723
21167SOL     OW65507   3.045   8.477  10.057
21167SOL    HW165508   3.138   8.472  10.081
21167SOL    HW265509   3.024   8.388  10.028
21168SOL     OW65510   5.605   8.455   6.131
21168SOL    HW165511   5.627   8.546   6.150
21168SOL    HW265512   5.564   8.423   6.211
21169SOL     OW65513   4.127   8.218   6.281
21169SOL    HW165514   4.064   8.149   6.260
21169SOL    HW265515   4.127   8.222   6.376
21170SOL     OW65516   7.204   7.119   0.091
21170SOL    HW165517   7.179   7.203   0.054
21170SOL    HW265518   7.243   7.071   0.018
21171SOL     OW65519   4.212   1.990   6.332
21171SOL    HW165520   4.236   2.066   6.384
21171SOL    HW265521   4.208   2.023   6.242
21172SOL     OW65522   7.715   0.236   8.456
21172SOL    HW165523   7.637   0.244   8.511
21172SOL    HW265524   7.684   0.194   8.376
21173SOL     OW65525   2.334   5.657  10.403
21173SOL    HW165526   2.253   5.629  10.444
21173SOL    HW265527   2.315   5.745  10.370
21174SOL     OW65528   7.590   9.666   0.754
21174SOL    HW165529   7.607   9.745   0.804
21174SOL    HW265530   7.579   9.598   0.820
21175SOL     OW65531   4.095   7.643   4.116
21175SOL    HW165532   4.116   7.735   4.101
21175SOL    HW265533   4.041   7.642   4.195
21176SOL     OW65534  10.637   4.279   2.295
21176SOL    HW165535  10.603   4.191   2.276
21176SOL    HW265536  10.732   4.269   2.286
21177SOL     OW65537   3.154   7.615   5.294
21177SOL    HW165538   3.120   7.573   5.373
21177SOL    HW265539   3.147   7.708   5.312
21178SOL     OW65540   7.011   1.945   5.261
21178SOL    HW165541   7.006   2.004   5.335
21178SOL    HW265542   6.920   1.933   5.234
21179SOL     OW65543   3.350   1.942   0.761
21179SOL    HW165544   3.334   2.035   0.744
21179SOL    HW265545   3.346   1.934   0.856
21180SOL     OW65546   5.528   6.089   8.233
21180SOL    HW165547   5.435   6.072   8.250
21180SOL    HW265548   5.528   6.148   8.157
21181SOL     OW65549  10.188   5.951   5.482
21181SOL    HW165550  10.101   5.934   5.446
21181SOL    HW265551  10.215   5.867   5.520
21182SOL     OW65552  11.025   0.866   5.550
21182SOL    HW165553  11.039   0.890   5.641
21182SOL    HW265554  10.943   0.909   5.526
21183SOL     OW65555   8.399   7.910   0.397
21183SOL    HW165556   8.405   7.820   0.364
21183SOL    HW265557   8.451   7.962   0.335
21184SOL     OW65558   1.255   2.041   6.306
21184SOL    HW165559   1.295   2.003   6.228
21184SOL    HW265560   1.162   2.047   6.284
21185SOL     OW65561   3.439   0.631   5.196
21185SOL    HW165562   3.379   0.593   5.131
21185SOL    HW265563   3.425   0.725   5.189
21186SOL     OW65564   1.841   0.234   5.044
21186SOL    HW165565   1.913   0.295   5.030
21186SOL    HW265566   1.782   0.279   5.104
21187SOL     OW65567   6.720   0.129   8.706
21187SOL    HW165568   6.813   0.148   8.694
21187SOL    HW265569   6.704   0.146   8.798
21188SOL     OW65570   3.166   0.040   2.681
21188SOL    HW165571   3.188  -0.035   2.736
21188SOL    HW265572   3.250   0.071   2.648
21189SOL     OW65573   9.871   9.905   5.805
21189SOL    HW165574   9.957   9.877   5.836
21189SOL    HW265575   9.851   9.983   5.856
21190SOL     OW65576   9.824   0.607   4.929
21190SOL    HW165577   9.895   0.548   4.955
21190SOL    HW265578   9.744   0.555   4.942
21191SOL     OW65579   8.841   3.293   7.334
21191SOL    HW165580   8.821   3.371   7.283
21191SOL    HW265581   8.881   3.326   7.414
21192SOL     OW65582   0.127   9.900   7.286
21192SOL    HW165583   0.123   9.973   7.224
21192SOL    HW265584   0.172   9.935   7.362
21193SOL     OW65585   3.503   6.099   4.323
21193SOL    HW165586   3.595   6.074   4.330
21193SOL    HW265587   3.499   6.186   4.361
21194SOL     OW65588   6.839   6.127   2.974
21194SOL    HW165589   6.904   6.108   3.042
21194SOL    HW265590   6.755   6.121   3.018
21195SOL     OW65591   0.874   0.738   2.534
21195SOL    HW165592   0.786   0.775   2.542
21195SOL    HW265593   0.861   0.654   2.488
21196SOL     OW65594  10.577   0.214   4.566
21196SOL    HW165595  10.585   0.295   4.616
21196SOL    HW265596  10.491   0.219   4.525
21197SOL     OW65597   0.481   0.644  10.627
21197SOL    HW165598   0.531   0.633  10.708
21197SOL    HW265599   0.540   0.614  10.558
21198SOL     OW65600  10.334  10.488   3.168
21198SOL    HW165601  10.403  10.461   3.228
21198SOL    HW265602  10.263  10.425   3.183
21199SOL     OW65603   7.789   8.267   2.968
21199SOL    HW165604   7.789   8.248   3.061
21199SOL    HW265605   7.769   8.360   2.962
21200SOL     OW65606   8.389   8.905   3.220
21200SOL    HW165607   8.442   8.891   3.298
21200SOL    HW265608   8.395   8.822   3.172
21201SOL     OW65609   5.798   1.453   9.532
21201SOL    HW165610   5.769   1.527   9.478
21201SOL    HW265611   5.730   1.443   9.598
21202SOL     OW65612   8.334   8.839   5.961
21202SOL    HW165613   8.273   8.779   5.918
21202SOL    HW265614   8.310   8.836   6.053
21203SOL     OW65615   4.020   3.955   1.625
21203SOL    HW165616   3.984   3.866   1.620
21203SOL    HW265617   3.953   4.010   1.586
21204SOL     OW65618   2.611  10.979   4.267
21204SOL    HW165619   2.553  10.948   4.336
21204SOL    HW265620   2.672  11.038   4.311
21205SOL     OW65621  10.689   2.583  10.489
21205SOL    HW165622  10.647   2.611  10.570
21205SOL    HW265623  10.714   2.664  10.445
21206SOL     OW65624   9.339  10.156   6.966
21206SOL    HW165625   9.277  10.213   7.011
21206SOL    HW265626   9.295  10.133   6.884
21207SOL     OW65627   6.492   1.914   0.286
21207SOL    HW165628   6.465   1.822   0.276
21207SOL    HW265629   6.476   1.933   0.378
21208SOL     OW65630   3.155   2.714   6.923
21208SOL    HW165631   3.159   2.684   6.832
21208SOL    HW265632   3.141   2.808   6.916
21209SOL     OW65633   8.755   0.145   4.497
21209SOL    HW165634   8.806   0.196   4.434
21209SOL    HW265635   8.665   0.173   4.483
21210SOL     OW65636   4.333   0.042   7.044
21210SOL    HW165637   4.366  -0.043   7.013
21210SOL    HW265638   4.372   0.105   6.983
21211SOL     OW65639   5.232   5.719   3.138
21211SOL    HW165640   5.305   5.777   3.159
21211SOL    HW265641   5.232   5.654   3.208
21212SOL     OW65642   1.054   3.759   6.992
21212SOL    HW165643   1.120   3.750   6.922
21212SOL    HW265644   1.077   3.840   7.036
21213SOL     OW65645   7.823   9.693  10.787
21213SOL    HW165646   7.740   9.691  10.739
21213SOL    HW265647   7.889   9.711  10.719
21214SOL     OW65648   2.390   4.337   5.642
21214SOL    HW165649   2.368   4.260   5.695
21214SOL    HW265650   2.315   4.396   5.652
21215SOL     OW65651   1.707   2.797   2.943
21215SOL    HW165652   1.716   2.736   2.870
21215SOL    HW265653   1.787   2.786   2.994
21216SOL     OW65654   9.995  10.837   2.748
21216SOL    HW165655   9.955  10.904   2.803
21216SOL    HW265656   9.967  10.860   2.659
21217SOL     OW65657   7.733   2.747   9.712
21217SOL    HW165658   7.679   2.810   9.759
21217SOL    HW265659   7.818   2.748   9.757
21218SOL     OW65660   5.289   6.797   7.551
21218SOL    HW165661   5.293   6.794   7.455
21218SOL    HW265662   5.253   6.883   7.571
21219SOL     OW65663   3.445   3.796   5.634
21219SOL    HW165664   3.419   3.745   5.557
21219SOL    HW265665   3.495   3.734   5.688
21220SOL     OW65666   7.329   0.043   6.821
21220SOL    HW165667   7.308   0.116   6.878
21220SOL    HW265668   7.305  -0.035   6.872
21221SOL     OW65669   8.389   2.440   7.098
21221SOL    HW165670   8.467   2.398   7.135
21221SOL    HW265671   8.414   2.531   7.086
21222SOL     OW65672   3.845   0.524   9.770
21222SOL    HW165673   3.814   0.491   9.854
21222SOL    HW265674   3.788   0.598   9.750
21223SOL     OW65675   4.930   7.416   8.507
21223SOL    HW165676   4.916   7.405   8.412
21223SOL    HW265677   4.907   7.331   8.544
21224SOL     OW65678   4.286   3.156   8.392
21224SOL    HW165679   4.244   3.230   8.348
21224SOL    HW265680   4.379   3.166   8.372
21225SOL     OW65681   4.613   9.253   4.852
21225SOL    HW165682   4.621   9.303   4.933
21225SOL    HW265683   4.545   9.188   4.870
21226SOL     OW65684   4.495  10.198   5.840
21226SOL    HW165685   4.506  10.130   5.772
21226SOL    HW265686   4.426  10.164   5.897
21227SOL     OW65687   9.881   2.284  10.227
21227SOL    HW165688   9.975   2.292  10.243
21227SOL    HW265689   9.874   2.218  10.158
21228SOL     OW65690   9.365   4.040   2.042
21228SOL    HW165691   9.455   4.010   2.030
21228SOL    HW265692   9.335   4.062   1.953
21229SOL     OW65693   4.908   1.800   6.511
21229SOL    HW165694   4.839   1.780   6.448
21229SOL    HW265695   4.989   1.796   6.459
21230SOL     OW65696   3.228   9.494   9.486
21230SOL    HW165697   3.181   9.539   9.416
21230SOL    HW265698   3.289   9.559   9.521
21231SOL     OW65699   1.543   3.822   4.782
21231SOL    HW165700   1.549   3.750   4.845
21231SOL    HW265701   1.630   3.825   4.742
21232SOL     OW65702   6.214   9.070   4.656
21232SOL    HW165703   6.127   9.031   4.653
21232SOL    HW265704   6.211   9.129   4.731
21233SOL     OW65705   7.769   3.844  10.081
21233SOL    HW165706   7.722   3.760  10.081
21233SOL    HW265707   7.829   3.838  10.155
21234SOL     OW65708   6.422  11.018   1.145
21234SOL    HW165709   6.329  11.031   1.130
21234SOL    HW265710   6.427  10.977   1.231
21235SOL     OW65711   6.766   7.679   4.100
21235SOL    HW165712   6.830   7.608   4.111
21235SOL    HW265713   6.758   7.718   4.187
21236SOL     OW65714   2.928   0.471   4.985
21236SOL    HW165715   2.883   0.387   4.977
21236SOL    HW265716   2.968   0.469   5.072
21237SOL     OW65717   3.366  10.485   4.883
21237SOL    HW165718   3.315  10.539   4.942
21237SOL    HW265719   3.433  10.544   4.848
21238SOL     OW65720   6.222   0.368  11.011
21238SOL    HW165721   6.171   0.440  10.975
21238SOL    HW265722   6.312   0.401  11.015
21239SOL     OW65723   2.028   1.884   3.499
21239SOL    HW165724   2.117   1.878   3.464
21239SOL    HW265725   2.039   1.883   3.594
21240SOL     OW65726   1.491   8.581   3.628
21240SOL    HW165727   1.486   8.674   3.606
21240SOL    HW265728   1.406   8.545   3.603
21241SOL     OW65729   8.522   1.810   7.468
21241SOL    HW165730   8.598   1.815   7.409
21241SOL    HW265731   8.461   1.751   7.422
21242SOL     OW65732   8.651   6.206   3.724
21242SOL    HW165733   8.723   6.253   3.766
21242SOL    HW265734   8.662   6.115   3.753
21243SOL     OW65735   5.830   9.299  10.797
21243SOL    HW165736   5.808   9.217  10.752
21243SOL    HW265737   5.869   9.354  10.729
21244SOL     OW65738   1.802   7.423   3.386
21244SOL    HW165739   1.794   7.365   3.310
21244SOL    HW265740   1.730   7.484   3.376
21245SOL     OW65741   4.958   8.959   5.335
21245SOL    HW165742   4.865   8.940   5.348
21245SOL    HW265743   5.003   8.907   5.402
21246SOL     OW65744   4.874   1.349   3.092
21246SOL    HW165745   4.807   1.400   3.137
21246SOL    HW265746   4.952   1.405   3.093
21247SOL     OW65747   3.379  10.684   9.530
21247SOL    HW165748   3.461  10.651   9.494
21247SOL    HW265749   3.398  10.701   9.622
21248SOL     OW65750   0.464   6.826   0.675
21248SOL    HW165751   0.472   6.914   0.711
21248SOL    HW265752   0.456   6.839   0.580
21249SOL     OW65753  10.849   0.311   5.131
21249SOL    HW165754  10.828   0.218   5.120
21249SOL    HW265755  10.925   0.312   5.189
21250SOL     OW65756   2.782   1.874   4.979
21250SOL    HW165757   2.844   1.938   4.944
21250SOL    HW265758   2.750   1.912   5.060
21251SOL     OW65759  10.190   4.241   4.597
21251SOL    HW165760  10.132   4.176   4.638
21251SOL    HW265761  10.192   4.314   4.658
21252SOL     OW65762   3.600  10.013   4.665
21252SOL    HW165763   3.661  10.056   4.605
21252SOL    HW265764   3.656   9.973   4.731
21253SOL     OW65765   8.570  10.704   1.902
21253SOL    HW165766   8.540  10.793   1.885
21253SOL    HW265767   8.632  10.686   1.831
21254SOL     OW65768   5.884  10.515   7.705
21254SOL    HW165769   5.838  10.589   7.665
21254SOL    HW265770   5.831  10.492   7.781
21255SOL     OW65771   5.811   1.363   8.900
21255SOL    HW165772   5.743   1.353   8.833
21255SOL    HW265773   5.869   1.288   8.887
21256SOL     OW65774   6.686   9.190   4.892
21256SOL    HW165775   6.665   9.120   4.830
21256SOL    HW265776   6.626   9.261   4.869
21257SOL     OW65777   0.431   4.409   8.006
21257SOL    HW165778   0.519   4.373   8.015
21257SOL    HW265779   0.440   4.478   7.940
21258SOL     OW65780   7.164   8.321   3.265
21258SOL    HW165781   7.120   8.300   3.182
21258SOL    HW265782   7.213   8.241   3.286
21259SOL     OW65783   6.405   7.835   2.169
21259SOL    HW165784   6.318   7.836   2.128
21259SOL    HW265785   6.466   7.844   2.095
21260SOL     OW65786   2.398   1.657   5.474
21260SOL    HW165787   2.344   1.652   5.395
21260SOL    HW265788   2.416   1.565   5.496
21261SOL     OW65789   3.423  10.944   0.267
21261SOL    HW165790   3.387  10.904   0.187
21261SOL    HW265791   3.436  10.871   0.327
21262SOL     OW65792   2.377  10.402   2.562
21262SOL    HW165793   2.321  10.364   2.629
21262SOL    HW265794   2.332  10.482   2.535
21263SOL     OW65795   4.609   1.776   5.811
21263SOL    HW165796   4.673   1.847   5.814
21263SOL    HW265797   4.553   1.791   5.886
21264SOL     OW65798   8.082   8.218   8.287
21264SOL    HW165799   8.041   8.265   8.215
21264SOL    HW265800   8.146   8.161   8.244
21265SOL     OW65801  11.076   8.331   5.650
21265SOL    HW165802  11.047   8.415   5.615
21265SOL    HW265803  11.078   8.344   5.745
21266SOL     OW65804   2.057   3.234  10.064
21266SOL    HW165805   2.050   3.147  10.024
21266SOL    HW265806   2.014   3.292  10.001
21267SOL     OW65807   7.460   8.467   0.052
21267SOL    HW165808   7.365   8.474   0.057
21267SOL    HW265809   7.476   8.401  -0.015
21268SOL     OW65810  10.847   2.440   9.506
21268SOL    HW165811  10.855   2.492   9.586
21268SOL    HW265812  10.935   2.441   9.467
21269SOL     OW65813   8.070   7.510   2.747
21269SOL    HW165814   7.997   7.569   2.767
21269SOL    HW265815   8.048   7.472   2.661
21270SOL     OW65816   8.041   4.907   0.993
21270SOL    HW165817   7.946   4.900   0.982
21270SOL    HW265818   8.072   4.816   0.993
21271SOL     OW65819   5.115   4.367   6.408
21271SOL    HW165820   5.144   4.354   6.498
21271SOL    HW265821   5.024   4.337   6.407
21272SOL     OW65822   1.963   4.238   6.299
21272SOL    HW165823   1.886   4.293   6.287
21272SOL    HW265824   2.008   4.241   6.214
21273SOL     OW65825   1.585  10.637   6.510
21273SOL    HW165826   1.558  10.628   6.601
21273SOL    HW265827   1.519  10.589   6.460
21274SOL     OW65828   5.821   9.154   5.830
21274SOL    HW165829   5.766   9.167   5.907
21274SOL    HW265830   5.901   9.112   5.863
21275SOL     OW65831   4.343  10.053   1.762
21275SOL    HW165832   4.340  10.043   1.666
21275SOL    HW265833   4.293   9.978   1.795
21276SOL     OW65834   6.725   8.549   9.155
21276SOL    HW165835   6.665   8.532   9.227
21276SOL    HW265836   6.764   8.463   9.136
21277SOL     OW65837   4.939  10.133   9.333
21277SOL    HW165838   4.907  10.043   9.345
21277SOL    HW265839   4.866  10.188   9.360
21278SOL     OW65840   4.364   8.715   4.273
21278SOL    HW165841   4.294   8.668   4.318
21278SOL    HW265842   4.334   8.722   4.182
21279SOL     OW65843   8.927   0.373   8.474
21279SOL    HW165844   8.853   0.414   8.517
21279SOL    HW265845   8.897   0.358   8.384
21280SOL     OW65846   4.839   8.071   0.727
21280SOL    HW165847   4.875   8.005   0.668
21280SOL    HW265848   4.906   8.083   0.794
21281SOL     OW65849   4.100   8.020   0.795
21281SOL    HW165850   4.023   7.985   0.840
21281SOL    HW265851   4.164   7.949   0.799
21282SOL     OW65852   5.057   8.291   0.624
21282SOL    HW165853   5.075   8.367   0.678
21282SOL    HW265854   5.034   8.222   0.686
21283SOL     OW65855   4.629   6.424   3.059
21283SOL    HW165856   4.695   6.485   3.026
21283SOL    HW265857   4.619   6.446   3.151
21284SOL     OW65858   4.007   0.716   0.529
21284SOL    HW165859   4.030   0.756   0.612
21284SOL    HW265860   4.019   0.786   0.464
21285SOL     OW65861   6.391  10.796   2.602
21285SOL    HW165862   6.459  10.771   2.539
21285SOL    HW265863   6.434  10.859   2.659
21286SOL     OW65864  10.920  10.428   7.692
21286SOL    HW165865  10.897  10.496   7.628
21286SOL    HW265866  10.964  10.361   7.640
21287SOL     OW65867   0.768   5.658   2.249
21287SOL    HW165868   0.701   5.720   2.219
21287SOL    HW265869   0.720   5.576   2.264
21288SOL     OW65870   0.441   9.731   8.464
21288SOL    HW165871   0.534   9.744   8.481
21288SOL    HW265872   0.409   9.817   8.439
21289SOL     OW65873  10.227   3.816   4.236
21289SOL    HW165874  10.285   3.889   4.255
21289SOL    HW265875  10.224   3.812   4.140
21290SOL     OW65876   0.405   2.413   7.836
21290SOL    HW165877   0.348   2.458   7.774
21290SOL    HW265878   0.345   2.374   7.900
21291SOL     OW65879   5.156   1.227   7.823
21291SOL    HW165880   5.122   1.298   7.769
21291SOL    HW265881   5.251   1.235   7.816
21292SOL     OW65882   5.311   4.921  10.548
21292SOL    HW165883   5.228   4.896  10.589
21292SOL    HW265884   5.374   4.857  10.581
21293SOL     OW65885   4.118   2.655   1.536
21293SOL    HW165886   4.059   2.676   1.464
21293SOL    HW265887   4.094   2.566   1.561
21294SOL     OW65888   6.819  11.019   1.197
21294SOL    HW165889   6.790  10.938   1.154
21294SOL    HW265890   6.835  11.080   1.125
21295SOL     OW65891   8.536   9.544   6.687
21295SOL    HW165892   8.473   9.593   6.740
21295SOL    HW265893   8.489   9.465   6.660
21296SOL     OW65894   5.291   7.095   4.511
21296SOL    HW165895   5.241   7.148   4.572
21296SOL    HW265896   5.251   7.008   4.516
21297SOL     OW65897   0.438   5.484   0.246
21297SOL    HW165898   0.412   5.463   0.156
21297SOL    HW265899   0.436   5.399   0.291
21298SOL     OW65900   7.832   5.252   5.197
21298SOL    HW165901   7.746   5.217   5.222
21298SOL    HW265902   7.842   5.331   5.249
21299SOL     OW65903   2.596   9.984   9.782
21299SOL    HW165904   2.552  10.063   9.752
21299SOL    HW265905   2.599   9.993   9.877
21300SOL     OW65906   3.365   9.396   4.275
21300SOL    HW165907   3.354   9.484   4.311
21300SOL    HW265908   3.435   9.405   4.210
21301SOL     OW65909   3.171   2.403   5.624
21301SOL    HW165910   3.100   2.461   5.651
21301SOL    HW265911   3.213   2.448   5.551
21302SOL     OW65912   3.284   5.314   4.422
21302SOL    HW165913   3.216   5.294   4.358
21302SOL    HW265914   3.239   5.317   4.506
21303SOL     OW65915   7.503  10.248   6.185
21303SOL    HW165916   7.473  10.329   6.226
21303SOL    HW265917   7.549  10.277   6.106
21304SOL     OW65918   3.291   9.676   5.243
21304SOL    HW165919   3.271   9.635   5.159
21304SOL    HW265920   3.336   9.757   5.220
21305SOL     OW65921   6.135   7.406   0.437
21305SOL    HW165922   6.085   7.477   0.476
21305SOL    HW265923   6.096   7.326   0.473
21306SOL     OW65924   8.690   0.397   9.524
21306SOL    HW165925   8.754   0.326   9.533
21306SOL    HW265926   8.705   0.453   9.600
21307SOL     OW65927   9.485   4.548   8.797
21307SOL    HW165928   9.502   4.624   8.741
21307SOL    HW265929   9.524   4.571   8.881
21308SOL     OW65930   4.081   2.041   3.081
21308SOL    HW165931   4.059   2.125   3.041
21308SOL    HW265932   4.079   2.057   3.175
21309SOL     OW65933  10.605   2.375   0.398
21309SOL    HW165934  10.638   2.286   0.414
21309SOL    HW265935  10.589   2.378   0.303
21310SOL     OW65936   8.537   8.742   7.399
21310SOL    HW165937   8.540   8.673   7.332
21310SOL    HW265938   8.464   8.717   7.456
21311SOL     OW65939   4.249   3.047  10.887
21311SOL    HW165940   4.307   2.988  10.934
21311SOL    HW265941   4.284   3.047  10.797
21312SOL     OW65942   4.237   2.402   8.696
21312SOL    HW165943   4.319   2.404   8.647
21312SOL    HW265944   4.239   2.481   8.750
21313SOL     OW65945   0.999   8.720   7.345
21313SOL    HW165946   0.911   8.756   7.355
21313SOL    HW265947   1.057   8.793   7.365
21314SOL     OW65948  10.565   1.962   7.142
21314SOL    HW165949  10.628   1.893   7.120
21314SOL    HW265950  10.485   1.915   7.165
21315SOL     OW65951   2.102   9.682   3.627
21315SOL    HW165952   2.114   9.763   3.577
21315SOL    HW265953   2.101   9.710   3.718
21316SOL     OW65954   1.360   2.782   9.993
21316SOL    HW165955   1.316   2.814   9.914
21316SOL    HW265956   1.350   2.852  10.057
21317SOL     OW65957  10.103  10.446   1.086
21317SOL    HW165958  10.098  10.449   0.990
21317SOL    HW265959  10.013  10.458   1.115
21318SOL     OW65960   1.829   7.197   5.100
21318SOL    HW165961   1.827   7.233   5.188
21318SOL    HW265962   1.860   7.269   5.045
21319SOL     OW65963   6.159   9.919   4.018
21319SOL    HW165964   6.188   9.880   4.101
21319SOL    HW265965   6.084   9.973   4.041
21320SOL     OW65966   2.912   3.045   7.833
21320SOL    HW165967   2.922   3.015   7.742
21320SOL    HW265968   3.001   3.045   7.868
21321SOL     OW65969   2.091   0.133   6.743
21321SOL    HW165970   2.171   0.149   6.793
21321SOL    HW265971   2.020   0.148   6.805
21322SOL     OW65972   5.475   0.268   1.503
21322SOL    HW165973   5.427   0.252   1.584
21322SOL    HW265974   5.415   0.321   1.450
21323SOL     OW65975   6.215  10.148   5.905
21323SOL    HW165976   6.292  10.092   5.917
21323SOL    HW265977   6.244  10.234   5.933
21324SOL     OW65978   3.751   9.764   4.603
21324SOL    HW165979   3.728   9.691   4.661
21324SOL    HW265980   3.674   9.776   4.547
21325SOL     OW65981   5.763   5.406   4.256
21325SOL    HW165982   5.703   5.344   4.298
21325SOL    HW265983   5.782   5.471   4.323
21326SOL     OW65984   1.074   4.408   5.507
21326SOL    HW165985   1.157   4.429   5.465
21326SOL    HW265986   1.055   4.318   5.479
21327SOL     OW65987  10.621   1.411   4.047
21327SOL    HW165988  10.620   1.365   3.963
21327SOL    HW265989  10.563   1.485   4.034
21328SOL     OW65990   0.701   4.762  10.326
21328SOL    HW165991   0.737   4.830  10.269
21328SOL    HW265992   0.734   4.680  10.289
21329SOL     OW65993   7.513   1.079   8.668
21329SOL    HW165994   7.500   1.173   8.671
21329SOL    HW265995   7.608   1.068   8.660
21330SOL     OW65996   1.922   9.824   7.747
21330SOL    HW165997   1.879   9.812   7.831
21330SOL    HW265998   2.015   9.810   7.765
21331SOL     OW65999   5.138   3.795   4.291
21331SOL    HW166000   5.224   3.786   4.331
21331SOL    HW266001   5.076   3.769   4.359
21332SOL     OW66002   8.414   8.002  10.738
21332SOL    HW166003   8.490   8.044  10.697
21332SOL    HW266004   8.434   8.002  10.831
21333SOL     OW66005  10.884  10.555   8.393
21333SOL    HW166006  10.808  10.497   8.389
21333SOL    HW266007  10.934  10.534   8.314
21334SOL     OW66008   6.638   8.856   8.070
21334SOL    HW166009   6.681   8.936   8.039
21334SOL    HW266010   6.548   8.882   8.088
21335SOL     OW66011   0.016  10.243  10.073
21335SOL    HW166012  -0.069  10.275  10.043
21335SOL    HW266013   0.069  10.322  10.083
21336SOL     OW66014   5.227   7.722   5.232
21336SOL    HW166015   5.315   7.685   5.241
21336SOL    HW266016   5.234   7.811   5.266
21337SOL     OW66017   0.528   0.082   1.769
21337SOL    HW166018   0.579   0.135   1.830
21337SOL    HW266019   0.572  -0.003   1.769
21338SOL     OW66020   3.923   9.054   3.129
21338SOL    HW166021   3.830   9.041   3.149
21338SOL    HW266022   3.969   8.996   3.190
21339SOL     OW66023   0.979   7.206   2.221
21339SOL    HW166024   1.038   7.273   2.254
21339SOL    HW266025   0.892   7.239   2.241
21340SOL     OW66026  10.889   2.774   7.206
21340SOL    HW166027  10.795   2.780   7.190
21340SOL    HW266028  10.918   2.703   7.147
21341SOL     OW66029   3.102   3.122   3.758
21341SOL    HW166030   3.189   3.133   3.718
21341SOL    HW266031   3.065   3.210   3.759
21342SOL     OW66032   6.389   2.360   5.385
21342SOL    HW166033   6.372   2.453   5.373
21342SOL    HW266034   6.419   2.351   5.475
21343SOL     OW66035   3.225   0.582   8.397
21343SOL    HW166036   3.142   0.599   8.354
21343SOL    HW266037   3.215   0.494   8.435
21344SOL     OW66038   2.977   5.547   5.883
21344SOL    HW166039   2.993   5.595   5.802
21344SOL    HW266040   3.039   5.584   5.945
21345SOL     OW66041   6.431  10.057   4.637
21345SOL    HW166042   6.475   9.975   4.614
21345SOL    HW266043   6.375  10.034   4.711
21346SOL     OW66044  10.003   9.730   5.973
21346SOL    HW166045  10.070   9.730   6.041
21346SOL    HW266046  10.003   9.640   5.940
21347SOL     OW66047   7.394  10.083   0.290
21347SOL    HW166048   7.474  10.030   0.296
21347SOL    HW266049   7.337  10.047   0.357
21348SOL     OW66050   5.105   4.423   4.986
21348SOL    HW166051   5.093   4.328   4.978
21348SOL    HW266052   5.039   4.461   4.928
21349SOL     OW66053   4.501   0.427   9.419
21349SOL    HW166054   4.502   0.389   9.507
21349SOL    HW266055   4.488   0.352   9.361
21350SOL     OW66056  10.023   9.908   0.452
21350SOL    HW166057   9.932   9.934   0.464
21350SOL    HW266058  10.019   9.834   0.391
21351SOL     OW66059   4.552   3.273   2.961
21351SOL    HW166060   4.502   3.319   3.028
21351SOL    HW266061   4.499   3.280   2.882
21352SOL     OW66062   1.510   9.643   3.361
21352SOL    HW166063   1.421   9.610   3.350
21352SOL    HW266064   1.547   9.588   3.430
21353SOL     OW66065   9.643   3.453   1.026
21353SOL    HW166066   9.598   3.536   1.012
21353SOL    HW266067   9.601   3.393   0.964
21354SOL     OW66068   4.143   1.118   3.832
21354SOL    HW166069   4.202   1.044   3.815
21354SOL    HW266070   4.061   1.093   3.790
21355SOL     OW66071   5.959   3.856   9.834
21355SOL    HW166072   5.895   3.887   9.898
21355SOL    HW266073   5.967   3.928   9.771
21356SOL     OW66074   2.316   1.676   3.877
21356SOL    HW166075   2.367   1.705   3.952
21356SOL    HW266076   2.238   1.636   3.914
21357SOL     OW66077   7.390   1.172   2.384
21357SOL    HW166078   7.417   1.110   2.316
21357SOL    HW266079   7.379   1.118   2.462
21358SOL     OW66080   0.523   0.685   7.051
21358SOL    HW166081   0.550   0.620   7.116
21358SOL    HW266082   0.448   0.729   7.091
21359SOL     OW66083   2.764   9.493   5.771
21359SOL    HW166084   2.810   9.493   5.687
21359SOL    HW266085   2.673   9.476   5.748
21360SOL     OW66086   5.402   8.617   8.811
21360SOL    HW166087   5.414   8.567   8.892
21360SOL    HW266088   5.329   8.574   8.767
21361SOL     OW66089   2.700   0.430   7.803
21361SOL    HW166090   2.718   0.336   7.803
21361SOL    HW266091   2.756   0.465   7.872
21362SOL     OW66092   0.191   8.930   0.637
21362SOL    HW166093   0.135   8.993   0.591
21362SOL    HW266094   0.177   8.948   0.730
21363SOL     OW66095   4.743   4.096   3.236
21363SOL    HW166096   4.789   4.076   3.317
21363SOL    HW266097   4.772   4.028   3.175
21364SOL     OW66098   4.825   7.409   0.199
21364SOL    HW166099   4.872   7.327   0.184
21364SOL    HW266100   4.849   7.434   0.289
21365SOL     OW66101   8.894   4.596   9.630
21365SOL    HW166102   8.816   4.541   9.619
21365SOL    HW266103   8.883   4.637   9.716
21366SOL     OW66104   5.458   9.576   6.209
21366SOL    HW166105   5.407   9.602   6.285
21366SOL    HW266106   5.474   9.657   6.162
21367SOL     OW66107   5.433   5.566   0.416
21367SOL    HW166108   5.475   5.498   0.470
21367SOL    HW266109   5.472   5.648   0.446
21368SOL     OW66110   8.878   9.950   8.289
21368SOL    HW166111   8.939   9.900   8.344
21368SOL    HW266112   8.791   9.928   8.323
21369SOL     OW66113  11.047   1.267   0.430
21369SOL    HW166114  10.964   1.225   0.408
21369SOL    HW266115  11.022   1.354   0.460
21370SOL     OW66116   2.933   1.976   3.451
21370SOL    HW166117   2.892   1.909   3.396
21370SOL    HW266118   2.965   2.041   3.389
21371SOL     OW66119   6.018   5.937   4.003
21371SOL    HW166120   6.091   5.944   4.064
21371SOL    HW266121   5.978   6.024   4.002
21372SOL     OW66122   6.219   6.798   2.434
21372SOL    HW166123   6.308   6.829   2.452
21372SOL    HW266124   6.187   6.765   2.518
21373SOL     OW66125   4.262  10.846   4.318
21373SOL    HW166126   4.319  10.900   4.263
21373SOL    HW266127   4.307  10.762   4.323
21374SOL     OW66128   5.214   8.335   1.764
21374SOL    HW166129   5.234   8.241   1.754
21374SOL    HW266130   5.206   8.348   1.858
21375SOL     OW66131   7.044   1.720   5.538
21375SOL    HW166132   7.053   1.805   5.581
21375SOL    HW266133   6.950   1.709   5.525
21376SOL     OW66134   6.974   9.196   7.460
21376SOL    HW166135   6.935   9.142   7.529
21376SOL    HW266136   7.055   9.150   7.436
21377SOL     OW66137   7.426   9.405   7.314
21377SOL    HW166138   7.501   9.438   7.264
21377SOL    HW266139   7.461   9.389   7.401
21378SOL     OW66140   3.581   3.560  10.450
21378SOL    HW166141   3.642   3.619  10.494
21378SOL    HW266142   3.540   3.614  10.382
21379SOL     OW66143   4.589   7.558   2.778
21379SOL    HW166144   4.562   7.530   2.865
21379SOL    HW266145   4.521   7.524   2.720
21380SOL     OW66146   1.843  10.340   9.629
21380SOL    HW166147   1.760  10.383   9.611
21380SOL    HW266148   1.819  10.249   9.648
21381SOL     OW66149   3.812   6.767   4.577
21381SOL    HW166150   3.745   6.731   4.635
21381SOL    HW266151   3.895   6.750   4.622
21382SOL     OW66152   5.245   7.554   3.413
21382SOL    HW166153   5.182   7.517   3.475
21382SOL    HW266154   5.325   7.566   3.464
21383SOL     OW66155   2.071   3.840   8.984
21383SOL    HW166156   2.131   3.847   9.058
21383SOL    HW266157   1.984   3.842   9.023
21384SOL     OW66158   6.104  11.034   5.147
21384SOL    HW166159   6.088  10.943   5.120
21384SOL    HW266160   6.151  11.073   5.073
21385SOL     OW66161   1.235   7.121   9.263
21385SOL    HW166162   1.285   7.068   9.325
21385SOL    HW266163   1.278   7.206   9.265
21386SOL     OW66164  10.418  10.303   4.272
21386SOL    HW166165  10.395  10.211   4.255
21386SOL    HW266166  10.338  10.352   4.254
21387SOL     OW66167   6.932   6.591   1.484
21387SOL    HW166168   6.939   6.537   1.563
21387SOL    HW266169   6.932   6.527   1.412
21388SOL     OW66170   6.807   6.029   3.812
21388SOL    HW166171   6.842   6.115   3.833
21388SOL    HW266172   6.885   5.974   3.802
21389SOL     OW66173   3.378   2.770   3.817
21389SOL    HW166174   3.289   2.742   3.838
21389SOL    HW266175   3.376   2.865   3.823
21390SOL     OW66176   0.601   4.857  10.769
21390SOL    HW166177   0.651   4.777  10.786
21390SOL    HW266178   0.510   4.828  10.770
21391SOL     OW66179  10.538   8.126   4.117
21391SOL    HW166180  10.616   8.070   4.118
21391SOL    HW266181  10.518   8.138   4.024
21392SOL     OW66182   4.353   3.079  10.628
21392SOL    HW166183   4.420   3.140  10.659
21392SOL    HW266184   4.399   3.022  10.566
21393SOL     OW66185   7.926   9.000   6.279
21393SOL    HW166186   7.957   8.959   6.359
21393SOL    HW266187   7.885   9.081   6.307
21394SOL     OW66188   5.411   6.234   6.293
21394SOL    HW166189   5.456   6.314   6.266
21394SOL    HW266190   5.336   6.228   6.234
21395SOL     OW66191  10.031   0.984   7.816
21395SOL    HW166192   9.952   0.932   7.833
21395SOL    HW266193   9.999   1.074   7.808
21396SOL     OW66194   5.732  10.896   6.219
21396SOL    HW166195   5.794  10.909   6.147
21396SOL    HW266196   5.770  10.826   6.271
21397SOL     OW66197   4.967   8.108   7.014
21397SOL    HW166198   5.038   8.151   6.966
21397SOL    HW266199   4.989   8.122   7.106
21398SOL     OW66200   0.761  11.070   7.457
21398SOL    HW166201   0.670  11.099   7.457
21398SOL    HW266202   0.806  11.133   7.401
21399SOL     OW66203   4.090   3.472   9.875
21399SOL    HW166204   4.152   3.460   9.946
21399SOL    HW266205   4.124   3.546   9.825
21400SOL     OW66206   6.137   2.215   7.666
21400SOL    HW166207   6.091   2.255   7.592
21400SOL    HW266208   6.075   2.222   7.739
21401SOL     OW66209   5.620  10.238   6.194
21401SOL    HW166210   5.650  10.271   6.109
21401SOL    HW266211   5.529  10.213   6.179
21402SOL     OW66212   8.468   5.418   6.214
21402SOL    HW166213   8.520   5.348   6.174
21402SOL    HW266214   8.532   5.486   6.234
21403SOL     OW66215   9.459   7.563   0.174
21403SOL    HW166216   9.458   7.615   0.094
21403SOL    HW266217   9.510   7.615   0.236
21404SOL     OW66218   3.525   0.651   6.316
21404SOL    HW166219   3.451   0.593   6.296
21404SOL    HW266220   3.522   0.717   6.247
21405SOL     OW66221   3.314   7.500   5.034
21405SOL    HW166222   3.388   7.468   4.981
21405SOL    HW266223   3.241   7.443   5.009
21406SOL     OW66224   4.548   6.291   6.109
21406SOL    HW166225   4.591   6.247   6.035
21406SOL    HW266226   4.457   6.261   6.105
21407SOL     OW66227   5.154   8.168   4.480
21407SOL    HW166228   5.175   8.096   4.419
21407SOL    HW266229   5.166   8.130   4.567
21408SOL     OW66230   2.798   8.747   8.322
21408SOL    HW166231   2.886   8.709   8.312
21408SOL    HW266232   2.805   8.804   8.398
21409SOL     OW66233   7.079  10.617   4.430
21409SOL    HW166234   7.063  10.656   4.516
21409SOL    HW266235   7.173  10.628   4.416
21410SOL     OW66236  10.687   3.602   7.571
21410SOL    HW166237  10.699   3.672   7.507
21410SOL    HW266238  10.605   3.623   7.615
21411SOL     OW66239   5.472   3.495   2.678
21411SOL    HW166240   5.539   3.427   2.690
21411SOL    HW266241   5.389   3.447   2.685
21412SOL     OW66242   3.438   0.972   2.571
21412SOL    HW166243   3.385   1.035   2.619
21412SOL    HW266244   3.497   1.025   2.518
21413SOL     OW66245   7.954   9.708   9.246
21413SOL    HW166246   7.974   9.773   9.313
21413SOL    HW266247   7.920   9.633   9.294
21414SOL     OW66248   2.650   6.903   2.982
21414SOL    HW166249   2.586   6.832   2.992
21414SOL    HW266250   2.646   6.951   3.064
21415SOL     OW66251   7.104   0.956   4.896
21415SOL    HW166252   7.070   0.910   4.819
21415SOL    HW266253   7.105   1.048   4.870
21416SOL     OW66254   4.108   9.797   9.508
21416SOL    HW166255   4.041   9.855   9.544
21416SOL    HW266256   4.189   9.848   9.511
21417SOL     OW66257   7.316  10.500   5.405
21417SOL    HW166258   7.324  10.452   5.322
21417SOL    HW266259   7.341  10.590   5.383
21418SOL     OW66260   6.040  10.557   4.108
21418SOL    HW166261   6.020  10.534   4.017
21418SOL    HW266262   6.054  10.473   4.152
21419SOL     OW66263   9.968   9.825   1.551
21419SOL    HW166264  10.007   9.912   1.548
21419SOL    HW266265  10.039   9.766   1.526
21420SOL     OW66266   5.867  10.086   0.787
21420SOL    HW166267   5.898  10.019   0.726
21420SOL    HW266268   5.939  10.149   0.791
21421SOL     OW66269   1.349   6.130   3.050
21421SOL    HW166270   1.328   6.172   2.966
21421SOL    HW266271   1.405   6.055   3.026
21422SOL     OW66272   9.157   0.098   0.582
21422SOL    HW166273   9.062   0.102   0.584
21422SOL    HW266274   9.180   0.126   0.493
21423SOL     OW66275   6.577  10.858   3.518
21423SOL    HW166276   6.530  10.900   3.590
21423SOL    HW266277   6.531  10.887   3.439
21424SOL     OW66278   1.558   5.936   4.556
21424SOL    HW166279   1.521   5.847   4.560
21424SOL    HW266280   1.485   5.993   4.577
21425SOL     OW66281  10.955   8.894   4.239
21425SOL    HW166282  11.031   8.850   4.277
21425SOL    HW266283  10.891   8.898   4.310
21426SOL     OW66284   3.239   4.572   3.398
21426SOL    HW166285   3.156   4.524   3.397
21426SOL    HW266286   3.215   4.662   3.419
21427SOL     OW66287   6.653   6.303   1.994
21427SOL    HW166288   6.742   6.268   1.993
21427SOL    HW266289   6.651   6.366   1.922
21428SOL     OW66290   1.346   9.632  11.005
21428SOL    HW166291   1.338   9.537  11.013
21428SOL    HW266292   1.289   9.666  11.073
21429SOL     OW66293   3.596   1.468   9.900
21429SOL    HW166294   3.533   1.400   9.876
21429SOL    HW266295   3.640   1.489   9.817
21430SOL     OW66296   8.456   9.862   5.479
21430SOL    HW166297   8.423   9.845   5.391
21430SOL    HW266298   8.551   9.865   5.468
21431SOL     OW66299   7.837   9.019   9.016
21431SOL    HW166300   7.840   9.106   9.054
21431SOL    HW266301   7.745   9.006   8.993
21432SOL     OW66302   5.823   8.059   0.562
21432SOL    HW166303   5.791   8.055   0.472
21432SOL    HW266304   5.776   7.988   0.607
21433SOL     OW66305   1.599   1.257   1.732
21433SOL    HW166306   1.669   1.191   1.733
21433SOL    HW266307   1.523   1.210   1.697
21434SOL     OW66308   3.066   7.475   4.739
21434SOL    HW166309   2.985   7.482   4.789
21434SOL    HW266310   3.111   7.398   4.775
21435SOL     OW66311   6.579   1.081   4.382
21435SOL    HW166312   6.616   1.074   4.294
21435SOL    HW266313   6.497   1.031   4.377
21436SOL     OW66314   3.601   6.605   4.670
21436SOL    HW166315   3.557   6.620   4.753
21436SOL    HW266316   3.531   6.576   4.611
21437SOL     OW66317   6.908   9.636   7.241
21437SOL    HW166318   6.820   9.605   7.220
21437SOL    HW266319   6.946   9.566   7.294
21438SOL     OW66320   1.000  10.838   6.592
21438SOL    HW166321   0.955  10.828   6.676
21438SOL    HW266322   1.074  10.778   6.597
21439SOL     OW66323   2.216  10.513   8.004
21439SOL    HW166324   2.292  10.459   8.028
21439SOL    HW266325   2.200  10.568   8.081
21440SOL     OW66326   7.370   8.731   2.657
21440SOL    HW166327   7.447   8.779   2.626
21440SOL    HW266328   7.336   8.688   2.578
21441SOL     OW66329   6.796  11.093   3.526
21441SOL    HW166330   6.730  11.134   3.470
21441SOL    HW266331   6.785  11.135   3.611
21442SOL     OW66332   2.000   1.743   5.011
21442SOL    HW166333   2.004   1.827   5.057
21442SOL    HW266334   2.088   1.707   5.019
21443SOL     OW66335   8.876  10.021   4.739
21443SOL    HW166336   8.803   9.974   4.699
21443SOL    HW266337   8.938  10.035   4.667
21444SOL     OW66338   3.147   5.150   7.953
21444SOL    HW166339   3.211   5.178   7.887
21444SOL    HW266340   3.185   5.070   7.990
21445SOL     OW66341   2.584   9.649   4.473
21445SOL    HW166342   2.517   9.637   4.406
21445SOL    HW266343   2.547   9.712   4.534
21446SOL     OW66344   3.338   3.111   4.473
21446SOL    HW166345   3.271   3.178   4.478
21446SOL    HW266346   3.320   3.054   4.548
21447SOL     OW66347   2.495  11.074   8.858
21447SOL    HW166348   2.525  11.163   8.839
21447SOL    HW266349   2.486  11.072   8.953
21448SOL     OW66350   8.912   9.241   3.544
21448SOL    HW166351   8.846   9.175   3.566
21448SOL    HW266352   8.939   9.219   3.455
21449SOL     OW66353   5.439   1.267   5.337
21449SOL    HW166354   5.531   1.292   5.329
21449SOL    HW266355   5.409   1.260   5.246
21450SOL     OW66356   0.011   0.732   7.627
21450SOL    HW166357   0.041   0.736   7.718
21450SOL    HW266358   0.091   0.736   7.575
21451SOL     OW66359   2.949   7.669   7.316
21451SOL    HW166360   2.981   7.693   7.403
21451SOL    HW266361   3.004   7.595   7.290
21452SOL     OW66362   0.940   1.634   0.600
21452SOL    HW166363   1.018   1.592   0.636
21452SOL    HW266364   0.867   1.587   0.641
21453SOL     OW66365   3.975   1.375   3.183
21453SOL    HW166366   3.977   1.469   3.200
21453SOL    HW266367   3.882   1.354   3.174
21454SOL     OW66368   2.044   2.088   5.866
21454SOL    HW166369   2.094   2.116   5.942
21454SOL    HW266370   2.000   2.007   5.894
21455SOL     OW66371   3.360  10.484   3.592
21455SOL    HW166372   3.332  10.522   3.508
21455SOL    HW266373   3.359  10.558   3.653
21456SOL     OW66374   1.410   2.810   1.670
21456SOL    HW166375   1.328   2.849   1.640
21456SOL    HW266376   1.407   2.720   1.638
21457SOL     OW66377   0.470  10.997   0.453
21457SOL    HW166378   0.397  10.935   0.453
21457SOL    HW266379   0.501  10.998   0.543
21458SOL     OW66380   6.711   6.220   4.352
21458SOL    HW166381   6.717   6.220   4.447
21458SOL    HW266382   6.658   6.143   4.331
21459SOL     OW66383   6.851   7.865   5.797
21459SOL    HW166384   6.921   7.928   5.783
21459SOL    HW266385   6.892   7.780   5.781
21460SOL     OW66386   7.015   3.200   2.993
21460SOL    HW166387   6.977   3.113   2.977
21460SOL    HW266388   7.049   3.195   3.082
21461SOL     OW66389   7.522   8.600   0.272
21461SOL    HW166390   7.469   8.678   0.260
21461SOL    HW266391   7.518   8.555   0.187
21462SOL     OW66392   6.896   0.317   4.990
21462SOL    HW166393   6.846   0.381   5.040
21462SOL    HW266394   6.926   0.364   4.912
21463SOL     OW66395   1.836   6.644   3.046
21463SOL    HW166396   1.771   6.590   3.000
21463SOL    HW266397   1.910   6.648   2.985
21464SOL     OW66398   1.269   9.090   1.275
21464SOL    HW166399   1.325   9.017   1.249
21464SOL    HW266400   1.180   9.054   1.272
21465SOL     OW66401   4.278  10.665   5.875
21465SOL    HW166402   4.283  10.576   5.908
21465SOL    HW266403   4.332  10.716   5.935
21466SOL     OW66404   6.582   6.937   9.059
21466SOL    HW166405   6.610   6.947   8.968
21466SOL    HW266406   6.499   6.890   9.053
21467SOL     OW66407   2.393   9.249   6.331
21467SOL    HW166408   2.418   9.168   6.287
21467SOL    HW266409   2.317   9.225   6.384
21468SOL     OW66410   0.161  10.893   9.469
21468SOL    HW166411   0.193  10.915   9.381
21468SOL    HW266412   0.212  10.817   9.495
21469SOL     OW66413   6.918   8.017   6.148
21469SOL    HW166414   6.884   8.003   6.236
21469SOL    HW266415   7.011   7.994   6.154
21470SOL     OW66416   6.629   7.526   8.468
21470SOL    HW166417   6.648   7.507   8.376
21470SOL    HW266418   6.563   7.461   8.492
21471SOL     OW66419   5.541   4.834   2.651
21471SOL    HW166420   5.462   4.786   2.676
21471SOL    HW266421   5.588   4.847   2.733
21472SOL     OW66422   3.914   4.705   5.516
21472SOL    HW166423   3.868   4.782   5.549
21472SOL    HW266424   3.989   4.740   5.467
21473SOL     OW66425   6.795   4.425   9.909
21473SOL    HW166426   6.823   4.399   9.996
21473SOL    HW266427   6.720   4.369   9.890
21474SOL     OW66428   7.836   5.265   8.339
21474SOL    HW166429   7.886   5.221   8.408
21474SOL    HW266430   7.798   5.342   8.381
21475SOL     OW66431   4.206   2.354   6.848
21475SOL    HW166432   4.245   2.414   6.911
21475SOL    HW266433   4.263   2.360   6.771
21476SOL     OW66434   4.663   4.401   3.414
21476SOL    HW166435   4.750   4.370   3.389
21476SOL    HW266436   4.609   4.322   3.413
21477SOL     OW66437   8.763   8.378   6.229
21477SOL    HW166438   8.752   8.386   6.323
21477SOL    HW266439   8.817   8.299   6.218
21478SOL     OW66440   4.425   3.080   9.066
21478SOL    HW166441   4.502   3.042   9.023
21478SOL    HW266442   4.396   3.012   9.127
21479SOL     OW66443   2.546  10.639   2.440
21479SOL    HW166444   2.629  10.614   2.398
21479SOL    HW266445   2.479  10.621   2.374
21480SOL     OW66446   7.040   2.496   1.932
21480SOL    HW166447   7.035   2.402   1.952
21480SOL    HW266448   7.054   2.538   2.016
21481SOL     OW66449   3.856   4.134   3.648
21481SOL    HW166450   3.936   4.156   3.599
21481SOL    HW266451   3.888   4.095   3.729
21482SOL     OW66452  10.686   3.497   9.506
21482SOL    HW166453  10.609   3.498   9.563
21482SOL    HW266454  10.650   3.490   9.417
21483SOL     OW66455   4.756   4.545  10.508
21483SOL    HW166456   4.717   4.459  10.524
21483SOL    HW266457   4.824   4.553  10.575
21484SOL     OW66458   1.050   0.250   8.602
21484SOL    HW166459   1.080   0.336   8.631
21484SOL    HW266460   1.121   0.190   8.626
21485SOL     OW66461   4.406   3.242   7.186
21485SOL    HW166462   4.361   3.326   7.193
21485SOL    HW266463   4.414   3.210   7.276
21486SOL     OW66464   6.991   7.353   0.957
21486SOL    HW166465   7.040   7.422   0.913
21486SOL    HW266466   6.964   7.391   1.040
21487SOL     OW66467   4.912  10.343   3.056
21487SOL    HW166468   4.977  10.273   3.059
21487SOL    HW266469   4.948  10.406   2.994
21488SOL     OW66470   4.309   0.617   7.230
21488SOL    HW166471   4.214   0.625   7.225
21488SOL    HW266472   4.337   0.692   7.281
21489SOL     OW66473   5.017   8.128   6.542
21489SOL    HW166474   4.994   8.036   6.527
21489SOL    HW266475   5.095   8.124   6.597
21490SOL     OW66476   5.557   7.750   5.595
21490SOL    HW166477   5.629   7.693   5.622
21490SOL    HW266478   5.541   7.726   5.503
21491SOL     OW66479   1.141   4.490   4.945
21491SOL    HW166480   1.124   4.564   4.887
21491SOL    HW266481   1.054   4.456   4.967
21492SOL     OW66482   8.907   6.253   5.165
21492SOL    HW166483   8.964   6.186   5.203
21492SOL    HW266484   8.822   6.239   5.207
21493SOL     OW66485   5.029   9.312   8.872
21493SOL    HW166486   5.067   9.383   8.923
21493SOL    HW266487   4.946   9.293   8.915
21494SOL     OW66488   4.672   7.115   2.486
21494SOL    HW166489   4.660   7.199   2.529
21494SOL    HW266490   4.715   7.060   2.551
21495SOL     OW66491   2.298   9.863   1.063
21495SOL    HW166492   2.276   9.951   1.094
21495SOL    HW266493   2.374   9.876   1.006
21496SOL     OW66494   7.014   4.891   5.791
21496SOL    HW166495   6.944   4.924   5.847
21496SOL    HW266496   7.042   4.966   5.739
21497SOL     OW66497   1.153   7.943   7.641
21497SOL    HW166498   1.216   7.872   7.627
21497SOL    HW266499   1.173   7.976   7.728
21498SOL     OW66500   9.551   5.532  10.952
21498SOL    HW166501   9.609   5.607  10.964
21498SOL    HW266502   9.464   5.570  10.940
21499SOL     OW66503   3.665   6.682   6.044
21499SOL    HW166504   3.696   6.765   6.080
21499SOL    HW266505   3.570   6.690   6.043
21500SOL     OW66506   6.785   2.116   2.170
21500SOL    HW166507   6.811   2.200   2.206
21500SOL    HW266508   6.746   2.068   2.243
21501SOL     OW66509   4.009   2.772   8.676
21501SOL    HW166510   3.970   2.728   8.751
21501SOL    HW266511   3.934   2.803   8.625
21502SOL     OW66512   6.326   3.294   0.981
21502SOL    HW166513   6.366   3.327   0.901
21502SOL    HW266514   6.243   3.340   0.987
21503SOL     OW66515   3.019   4.861   6.218
21503SOL    HW166516   3.021   4.943   6.267
21503SOL    HW266517   3.041   4.886   6.128
21504SOL     OW66518   6.583   6.731   6.218
21504SOL    HW166519   6.670   6.713   6.182
21504SOL    HW266520   6.579   6.680   6.299
21505SOL     OW66521   4.414  10.377   1.161
21505SOL    HW166522   4.459  10.292   1.169
21505SOL    HW266523   4.324  10.354   1.139
21506SOL     OW66524   9.165   7.229   0.468
21506SOL    HW166525   9.110   7.304   0.489
21506SOL    HW266526   9.110   7.173   0.413
21507SOL     OW66527   8.430   7.254   9.232
21507SOL    HW166528   8.457   7.267   9.323
21507SOL    HW266529   8.344   7.296   9.226
21508SOL     OW66530   2.023   5.425   5.926
21508SOL    HW166531   2.065   5.507   5.949
21508SOL    HW266532   1.938   5.428   5.970
21509SOL     OW66533   9.160   4.090   4.701
21509SOL    HW166534   9.079   4.137   4.680
21509SOL    HW266535   9.198   4.069   4.615
21510SOL     OW66536  11.004   9.956   5.593
21510SOL    HW166537  11.015   9.989   5.504
21510SOL    HW266538  11.089   9.970   5.635
21511SOL     OW66539   0.624   5.737   8.284
21511SOL    HW166540   0.561   5.751   8.354
21511SOL    HW266541   0.596   5.655   8.242
21512SOL     OW66542   6.516   4.270   5.452
21512SOL    HW166543   6.502   4.189   5.502
21512SOL    HW266544   6.600   4.256   5.408
21513SOL     OW66545   6.523   9.288   1.029
21513SOL    HW166546   6.528   9.266   1.122
21513SOL    HW266547   6.596   9.240   0.989
21514SOL     OW66548   6.926   4.242   8.650
21514SOL    HW166549   6.989   4.212   8.584
21514SOL    HW266550   6.936   4.181   8.723
21515SOL     OW66551   4.255   8.970   1.241
21515SOL    HW166552   4.277   8.916   1.317
21515SOL    HW266553   4.160   8.965   1.235
21516SOL     OW66554   8.405   1.461   8.028
21516SOL    HW166555   8.426   1.554   8.020
21516SOL    HW266556   8.390   1.432   7.938
21517SOL     OW66557   9.232   4.600   7.939
21517SOL    HW166558   9.313   4.584   7.988
21517SOL    HW266559   9.168   4.541   7.978
21518SOL     OW66560   2.946   7.270  10.103
21518SOL    HW166561   2.930   7.181  10.135
21518SOL    HW266562   2.870   7.320  10.132
21519SOL     OW66563   3.418   1.875   7.401
21519SOL    HW166564   3.512   1.858   7.410
21519SOL    HW266565   3.382   1.856   7.487
21520SOL     OW66566   1.532   7.204   5.105
21520SOL    HW166567   1.575   7.137   5.158
21520SOL    HW266568   1.597   7.226   5.037
21521SOL     OW66569   7.377  10.110   4.114
21521SOL    HW166570   7.323  10.102   4.035
21521SOL    HW266571   7.467  10.100   4.082
21522SOL     OW66572   1.079  10.645   2.436
21522SOL    HW166573   1.127  10.584   2.380
21522SOL    HW266574   1.102  10.732   2.402
21523SOL     OW66575   7.607   2.385   2.921
21523SOL    HW166576   7.565   2.434   2.991
21523SOL    HW266577   7.596   2.293   2.946
21524SOL     OW66578   1.980   6.995   8.462
21524SOL    HW166579   2.016   6.975   8.375
21524SOL    HW266580   2.051   7.040   8.507
21525SOL     OW66581   5.028   2.299   1.775
21525SOL    HW166582   5.045   2.289   1.868
21525SOL    HW266583   5.040   2.211   1.738
21526SOL     OW66584   0.034   8.291   5.179
21526SOL    HW166585   0.121   8.325   5.198
21526SOL    HW266586   0.044   8.196   5.184
21527SOL     OW66587   5.423   0.575   9.666
21527SOL    HW166588   5.448   0.483   9.680
21527SOL    HW266589   5.334   0.581   9.699
21528SOL     OW66590   3.986   2.309   0.277
21528SOL    HW166591   3.923   2.359   0.328
21528SOL    HW266592   4.071   2.346   0.300
21529SOL     OW66593   6.402  10.506   1.713
21529SOL    HW166594   6.476  10.474   1.662
21529SOL    HW266595   6.343  10.431   1.719
21530SOL     OW66596   7.396   6.232   9.144
21530SOL    HW166597   7.388   6.270   9.056
21530SOL    HW266598   7.362   6.143   9.134
21531SOL     OW66599   3.880   9.985   9.387
21531SOL    HW166600   3.874   9.934   9.306
21531SOL    HW266601   3.858  10.074   9.361
21532SOL     OW66602   6.426   6.920   6.885
21532SOL    HW166603   6.451   6.891   6.797
21532SOL    HW266604   6.462   7.008   6.892
21533SOL     OW66605   7.568   3.689   9.179
21533SOL    HW166606   7.590   3.689   9.272
21533SOL    HW266607   7.474   3.671   9.176
21534SOL     OW66608   7.178   4.230   8.891
21534SOL    HW166609   7.151   4.142   8.918
21534SOL    HW266610   7.155   4.286   8.965
21535SOL     OW66611   0.664   7.741   2.290
21535SOL    HW166612   0.576   7.758   2.257
21535SOL    HW266613   0.666   7.781   2.377
21536SOL     OW66614   9.210   1.761   6.454
21536SOL    HW166615   9.131   1.750   6.401
21536SOL    HW266616   9.219   1.678   6.501
21537SOL     OW66617  10.789   6.347   1.857
21537SOL    HW166618  10.721   6.314   1.916
21537SOL    HW266619  10.745   6.414   1.805
21538SOL     OW66620   6.933   7.339  10.021
21538SOL    HW166621   6.907   7.369  10.108
21538SOL    HW266622   6.850   7.322   9.976
21539SOL     OW66623   3.665   2.685   9.498
21539SOL    HW166624   3.605   2.674   9.572
21539SOL    HW266625   3.608   2.688   9.421
21540SOL     OW66626   8.106   9.907   7.986
21540SOL    HW166627   8.057   9.940   7.910
21540SOL    HW266628   8.191   9.881   7.950
21541SOL     OW66629   0.740  10.945   0.290
21541SOL    HW166630   0.669  10.981   0.343
21541SOL    HW266631   0.800  10.905   0.353
21542SOL     OW66632   5.038   9.226   5.335
21542SOL    HW166633   4.994   9.141   5.329
21542SOL    HW266634   4.986   9.284   5.280
21543SOL     OW66635   2.590   5.075   4.128
21543SOL    HW166636   2.563   5.165   4.144
21543SOL    HW266637   2.596   5.036   4.215
21544SOL     OW66638   0.261   7.862   6.480
21544SOL    HW166639   0.267   7.956   6.463
21544SOL    HW266640   0.180   7.835   6.435
21545SOL     OW66641   6.902   0.669  10.251
21545SOL    HW166642   6.840   0.596  10.248
21545SOL    HW266643   6.975   0.637  10.304
21546SOL     OW66644   0.277   5.794  10.559
21546SOL    HW166645   0.270   5.752  10.473
21546SOL    HW266646   0.369   5.819  10.566
21547SOL     OW66647   7.787   5.168   8.058
21547SOL    HW166648   7.737   5.087   8.068
21547SOL    HW266649   7.818   5.188   8.146
21548SOL     OW66650   3.192   2.317   6.611
21548SOL    HW166651   3.258   2.321   6.680
21548SOL    HW266652   3.232   2.264   6.542
21549SOL     OW66653   2.060   1.571   0.502
21549SOL    HW166654   2.097   1.658   0.512
21549SOL    HW266655   2.041   1.564   0.408
21550SOL     OW66656   7.731   7.585   3.635
21550SOL    HW166657   7.650   7.540   3.659
21550SOL    HW266658   7.796   7.553   3.698
21551SOL     OW66659   4.251   5.195  11.035
21551SOL    HW166660   4.280   5.286  11.040
21551SOL    HW266661   4.241   5.178  10.941
21552SOL     OW66662   5.007   5.826   2.440
21552SOL    HW166663   5.044   5.795   2.523
21552SOL    HW266664   5.071   5.799   2.374
21553SOL     OW66665   5.485   6.209   9.703
21553SOL    HW166666   5.394   6.184   9.718
21553SOL    HW266667   5.536   6.148   9.757
21554SOL     OW66668   9.429   5.983   7.684
21554SOL    HW166669   9.505   5.983   7.742
21554SOL    HW266670   9.368   5.922   7.725
21555SOL     OW66671   2.238   0.191   3.881
21555SOL    HW166672   2.327   0.158   3.891
21555SOL    HW266673   2.205   0.198   3.970
21556SOL     OW66674   4.432   8.023   9.557
21556SOL    HW166675   4.443   7.979   9.473
21556SOL    HW266676   4.505   7.991   9.610
21557SOL     OW66677   7.694   1.200  10.430
21557SOL    HW166678   7.738   1.229  10.350
21557SOL    HW266679   7.763   1.197  10.496
21558SOL     OW66680   2.430   2.014   1.346
21558SOL    HW166681   2.475   1.950   1.291
21558SOL    HW266682   2.440   2.097   1.299
21559SOL     OW66683   3.380   0.899  10.252
21559SOL    HW166684   3.429   0.834  10.302
21559SOL    HW266685   3.293   0.861  10.243
21560SOL     OW66686   5.710   9.640   8.883
21560SOL    HW166687   5.663   9.653   8.965
21560SOL    HW266688   5.643   9.649   8.815
21561SOL     OW66689   6.572   2.535   7.980
21561SOL    HW166690   6.530   2.538   7.894
21561SOL    HW266691   6.664   2.517   7.960
21562SOL     OW66692   6.689   7.122   5.524
21562SOL    HW166693   6.754   7.061   5.559
21562SOL    HW266694   6.690   7.106   5.429
21563SOL     OW66695   4.903   6.669   8.731
21563SOL    HW166696   4.950   6.586   8.742
21563SOL    HW266697   4.895   6.679   8.636
21564SOL     OW66698   5.023   7.849   8.425
21564SOL    HW166699   5.030   7.931   8.474
21564SOL    HW266700   5.021   7.781   8.492
21565SOL     OW66701   4.358   2.499   0.788
21565SOL    HW166702   4.399   2.489   0.874
21565SOL    HW266703   4.401   2.433   0.733
21566SOL     OW66704   3.395   8.770   4.612
21566SOL    HW166705   3.430   8.696   4.561
21566SOL    HW266706   3.473   8.819   4.640
21567SOL     OW66707   7.311  10.394   3.175
21567SOL    HW166708   7.391  10.341   3.170
21567SOL    HW266709   7.240  10.331   3.163
21568SOL     OW66710   4.190   3.385   9.331
21568SOL    HW166711   4.144   3.331   9.267
21568SOL    HW266712   4.271   3.336   9.349
21569SOL     OW66713   3.109  10.676   0.795
21569SOL    HW166714   3.158  10.674   0.713
21569SOL    HW266715   3.102  10.584   0.821
21570SOL     OW66716   6.240   5.947   9.089
21570SOL    HW166717   6.185   6.010   9.042
21570SOL    HW266718   6.220   5.863   9.047
21571SOL     OW66719   2.105   8.208   8.841
21571SOL    HW166720   2.194   8.176   8.829
21571SOL    HW266721   2.110   8.263   8.918
21572SOL     OW66722   2.488   6.346   1.460
21572SOL    HW166723   2.579   6.314   1.458
21572SOL    HW266724   2.440   6.278   1.508
21573SOL     OW66725   8.178   2.345   8.751
21573SOL    HW166726   8.261   2.307   8.780
21573SOL    HW266727   8.202   2.430   8.714
21574SOL     OW66728   8.368   9.373   2.828
21574SOL    HW166729   8.449   9.413   2.797
21574SOL    HW266730   8.357   9.406   2.917
21575SOL     OW66731   5.498   9.216   4.031
21575SOL    HW166732   5.470   9.160   4.103
21575SOL    HW266733   5.417   9.236   3.984
21576SOL     OW66734   0.145   9.554   5.578
21576SOL    HW166735   0.140   9.516   5.665
21576SOL    HW266736   0.166   9.480   5.521
21577SOL     OW66737   6.345   8.880  10.830
21577SOL    HW166738   6.425   8.929  10.847
21577SOL    HW266739   6.294   8.937  10.773
21578SOL     OW66740   4.120   0.388   7.878
21578SOL    HW166741   4.124   0.433   7.793
21578SOL    HW266742   4.085   0.453   7.938
21579SOL     OW66743   9.620  10.692   1.396
21579SOL    HW166744   9.579  10.609   1.419
21579SOL    HW266745   9.604  10.748   1.472
21580SOL     OW66746  10.357   0.338   7.749
21580SOL    HW166747  10.414   0.400   7.794
21580SOL    HW266748  10.385   0.252   7.780
21581SOL     OW66749   3.261   2.027   6.964
21581SOL    HW166750   3.357   2.023   6.964
21581SOL    HW266751   3.241   2.120   6.960
21582SOL     OW66752   6.627   3.245   8.182
21582SOL    HW166753   6.604   3.152   8.170
21582SOL    HW266754   6.563   3.292   8.128
21583SOL     OW66755   5.314   9.550   8.527
21583SOL    HW166756   5.408   9.542   8.511
21583SOL    HW266757   5.302   9.518   8.616
21584SOL     OW66758   6.143  10.171   5.148
21584SOL    HW166759   6.218  10.143   5.200
21584SOL    HW266760   6.097  10.089   5.127
21585SOL     OW66761   5.333   0.495   8.164
21585SOL    HW166762   5.264   0.464   8.105
21585SOL    HW266763   5.376   0.565   8.115
21586SOL     OW66764   6.678   8.592   8.033
21586SOL    HW166765   6.593   8.577   7.991
21586SOL    HW266766   6.675   8.682   8.064
21587SOL     OW66767   2.914   8.614   2.082
21587SOL    HW166768   2.875   8.563   2.153
21587SOL    HW266769   3.008   8.615   2.101
21588SOL     OW66770  11.050   9.739   2.154
21588SOL    HW166771  11.040   9.832   2.135
21588SOL    HW266772  11.008   9.726   2.239
21589SOL     OW66773  10.505   5.516   6.237
21589SOL    HW166774  10.438   5.497   6.303
21589SOL    HW266775  10.530   5.607   6.253
21590SOL     OW66776   4.988   1.060   7.326
21590SOL    HW166777   4.931   1.073   7.402
21590SOL    HW266778   5.070   1.103   7.349
21591SOL     OW66779   1.403   7.904   8.421
21591SOL    HW166780   1.427   7.862   8.503
21591SOL    HW266781   1.376   7.831   8.364
21592SOL     OW66782   4.125   9.056   3.853
21592SOL    HW166783   4.141   9.080   3.761
21592SOL    HW266784   4.031   9.067   3.864
21593SOL     OW66785   4.352   6.308   5.369
21593SOL    HW166786   4.375   6.359   5.291
21593SOL    HW266787   4.267   6.269   5.347
21594SOL     OW66788   3.337   0.231  10.076
21594SOL    HW166789   3.429   0.246  10.099
21594SOL    HW266790   3.323   0.284   9.997
21595SOL     OW66791   8.336   0.555   0.447
21595SOL    HW166792   8.305   0.611   0.375
21595SOL    HW266793   8.348   0.469   0.406
21596SOL     OW66794   3.905   1.442   7.189
21596SOL    HW166795   3.853   1.406   7.117
21596SOL    HW266796   3.913   1.369   7.251
21597SOL     OW66797   2.398   9.781   6.641
21597SOL    HW166798   2.363   9.704   6.596
21597SOL    HW266799   2.489   9.759   6.659
21598SOL     OW66800   3.516   7.279   8.978
21598SOL    HW166801   3.534   7.316   8.891
21598SOL    HW266802   3.568   7.198   8.980
21599SOL     OW66803   3.767   9.284  10.587
21599SOL    HW166804   3.699   9.339  10.625
21599SOL    HW266805   3.774   9.209  10.646
21600SOL     OW66806   2.487   9.298   2.590
21600SOL    HW166807   2.520   9.221   2.543
21600SOL    HW266808   2.495   9.275   2.682
21601SOL     OW66809   7.136   9.899   9.354
21601SOL    HW166810   7.205   9.949   9.397
21601SOL    HW266811   7.095   9.848   9.424
21602SOL     OW66812   7.399   8.560   0.600
21602SOL    HW166813   7.384   8.542   0.692
21602SOL    HW266814   7.492   8.582   0.594
21603SOL     OW66815   3.936   8.216   9.998
21603SOL    HW166816   4.017   8.264  10.016
21603SOL    HW266817   3.963   8.146   9.937
21604SOL     OW66818   8.350   8.651  10.928
21604SOL    HW166819   8.315   8.693  11.006
21604SOL    HW266820   8.440   8.628  10.951
21605SOL     OW66821   1.407  10.333   9.971
21605SOL    HW166822   1.432  10.291  10.053
21605SOL    HW266823   1.333  10.281   9.939
21606SOL     OW66824   6.266   7.133   0.039
21606SOL    HW166825   6.349   7.135  -0.008
21606SOL    HW266826   6.290   7.109   0.129
21607SOL     OW66827   4.919   9.318   6.517
21607SOL    HW166828   4.913   9.223   6.527
21607SOL    HW266829   4.938   9.350   6.605
21608SOL     OW66830   4.520   7.967   0.293
21608SOL    HW166831   4.576   7.898   0.329
21608SOL    HW266832   4.524   8.037   0.357
21609SOL     OW66833   3.925   7.754   8.949
21609SOL    HW166834   3.940   7.690   8.878
21609SOL    HW266835   3.833   7.780   8.939
21610SOL     OW66836   0.665   6.070   8.564
21610SOL    HW166837   0.625   6.039   8.482
21610SOL    HW266838   0.641   6.004   8.629
21611SOL     OW66839   4.022   8.404   7.302
21611SOL    HW166840   4.066   8.489   7.306
21611SOL    HW266841   4.091   8.342   7.277
21612SOL     OW66842   8.505   1.319   7.394
21612SOL    HW166843   8.530   1.400   7.438
21612SOL    HW266844   8.423   1.340   7.350
21613SOL     OW66845   5.422   8.597   3.623
21613SOL    HW166846   5.331   8.570   3.612
21613SOL    HW266847   5.419   8.675   3.677
21614SOL     OW66848   3.050  10.145   1.935
21614SOL    HW166849   3.098  10.183   2.008
21614SOL    HW266850   3.092  10.182   1.857
21615SOL     OW66851   8.983   9.214   0.604
21615SOL    HW166852   8.912   9.184   0.660
21615SOL    HW266853   8.958   9.186   0.516
21616SOL     OW66854   8.326   3.353   0.865
21616SOL    HW166855   8.364   3.415   0.803
21616SOL    HW266856   8.401   3.303   0.898
21617SOL     OW66857   7.105  10.434  10.308
21617SOL    HW166858   7.102  10.525  10.336
21617SOL    HW266859   7.074  10.384  10.383
21618SOL     OW66860   0.778  10.767   5.766
21618SOL    HW166861   0.805  10.801   5.680
21618SOL    HW266862   0.788  10.841   5.825
21619SOL     OW66863   4.445   2.103  10.096
21619SOL    HW166864   4.441   2.077  10.188
21619SOL    HW266865   4.452   2.198  10.098
21620SOL     OW66866   1.847   0.086   4.811
21620SOL    HW166867   1.942   0.072   4.813
21620SOL    HW266868   1.829   0.144   4.885
21621SOL     OW66869   8.633   4.917   4.219
21621SOL    HW166870   8.709   4.884   4.268
21621SOL    HW266871   8.602   4.840   4.170
21622SOL     OW66872   9.677   8.950   8.848
21622SOL    HW166873   9.639   8.894   8.916
21622SOL    HW266874   9.644   9.037   8.868
21623SOL     OW66875   2.830   1.566   3.297
21623SOL    HW166876   2.766   1.578   3.367
21623SOL    HW266877   2.835   1.651   3.253
21624SOL     OW66878   4.975   0.299  10.591
21624SOL    HW166879   4.971   0.228  10.655
21624SOL    HW266880   5.002   0.375  10.641
21625SOL     OW66881   6.100   0.751   7.530
21625SOL    HW166882   6.122   0.828   7.478
21625SOL    HW266883   6.005   0.756   7.542
21626SOL     OW66884   3.268   1.185  10.181
21626SOL    HW166885   3.294   1.187  10.089
21626SOL    HW266886   3.190   1.129  10.183
21627SOL     OW66887   6.098   0.770   3.207
21627SOL    HW166888   6.036   0.755   3.135
21627SOL    HW266889   6.143   0.686   3.218
21628SOL     OW66890   3.859   8.693   0.373
21628SOL    HW166891   3.860   8.751   0.449
21628SOL    HW266892   3.778   8.642   0.382
21629SOL     OW66893   3.624  10.247   7.668
21629SOL    HW166894   3.601  10.167   7.621
21629SOL    HW266895   3.540  10.287   7.691
21630SOL     OW66896   8.070   9.673   1.037
21630SOL    HW166897   8.118   9.598   1.001
21630SOL    HW266898   8.099   9.747   0.983
21631SOL     OW66899   3.460   4.501   7.243
21631SOL    HW166900   3.514   4.524   7.167
21631SOL    HW266901   3.468   4.406   7.250
21632SOL     OW66902   8.681   8.105   5.858
21632SOL    HW166903   8.680   8.009   5.848
21632SOL    HW266904   8.768   8.131   5.827
21633SOL     OW66905   2.051  10.199   5.017
21633SOL    HW166906   2.049  10.293   5.003
21633SOL    HW266907   1.997  10.185   5.094
21634SOL     OW66908   0.996   5.145   3.709
21634SOL    HW166909   0.937   5.191   3.768
21634SOL    HW266910   1.007   5.058   3.748
21635SOL     OW66911   4.042   9.740   9.233
21635SOL    HW166912   4.077   9.753   9.321
21635SOL    HW266913   4.066   9.819   9.185
21636SOL     OW66914   7.915   8.542   6.287
21636SOL    HW166915   7.986   8.516   6.228
21636SOL    HW266916   7.837   8.540   6.232
21637SOL     OW66917   8.196  11.092   7.526
21637SOL    HW166918   8.258  11.055   7.589
21637SOL    HW266919   8.219  11.185   7.522
21638SOL     OW66920   3.742   7.945   4.145
21638SOL    HW166921   3.771   7.948   4.236
21638SOL    HW266922   3.648   7.964   4.149
21639SOL     OW66923   5.385   5.692   7.603
21639SOL    HW166924   5.290   5.698   7.612
21639SOL    HW266925   5.420   5.758   7.662
21640SOL     OW66926   7.304  11.087   2.396
21640SOL    HW166927   7.351  11.077   2.313
21640SOL    HW266928   7.332  11.012   2.448
21641SOL     OW66929   1.137   3.101   0.370
21641SOL    HW166930   1.064   3.119   0.311
21641SOL    HW266931   1.132   3.169   0.436
21642SOL     OW66932   8.615   7.474   6.706
21642SOL    HW166933   8.641   7.551   6.756
21642SOL    HW266934   8.668   7.478   6.626
21643SOL     OW66935   4.956   6.893   6.135
21643SOL    HW166936   4.876   6.934   6.102
21643SOL    HW266937   4.955   6.805   6.096
21644SOL     OW66938   2.756   6.846   6.634
21644SOL    HW166939   2.793   6.861   6.721
21644SOL    HW266940   2.671   6.806   6.650
21645SOL     OW66941   5.470   7.535   2.497
21645SOL    HW166942   5.517   7.464   2.452
21645SOL    HW266943   5.398   7.490   2.542
21646SOL     OW66944   9.566   4.012   8.497
21646SOL    HW166945   9.526   3.984   8.414
21646SOL    HW266946   9.492   4.031   8.554
21647SOL     OW66947   6.058   3.231   2.585
21647SOL    HW166948   6.060   3.136   2.598
21647SOL    HW266949   5.977   3.247   2.537
21648SOL     OW66950   8.586   1.191   6.679
21648SOL    HW166951   8.598   1.264   6.739
21648SOL    HW266952   8.636   1.119   6.718
21649SOL     OW66953   7.053   8.342   6.458
21649SOL    HW166954   7.096   8.380   6.534
21649SOL    HW266955   6.996   8.411   6.425
21650SOL     OW66956   4.293   0.655  10.367
21650SOL    HW166957   4.287   0.682  10.458
21650SOL    HW266958   4.240   0.719  10.319
21651SOL     OW66959   3.943   2.244   9.121
21651SOL    HW166960   4.031   2.280   9.112
21651SOL    HW266961   3.906   2.248   9.032
21652SOL     OW66962   4.376   3.731   8.949
21652SOL    HW166963   4.310   3.799   8.934
21652SOL    HW266964   4.428   3.730   8.868
21653SOL     OW66965   4.286  10.312  10.377
21653SOL    HW166966   4.356  10.260  10.336
21653SOL    HW266967   4.207  10.287  10.329
21654SOL     OW66968   0.554  10.613   5.773
21654SOL    HW166969   0.584  10.571   5.853
21654SOL    HW266970   0.622  10.677   5.753
21655SOL     OW66971   5.874   4.820   0.077
21655SOL    HW166972   5.963   4.841   0.049
21655SOL    HW266973   5.875   4.725   0.090
21656SOL     OW66974   5.349   7.736  10.801
21656SOL    HW166975   5.414   7.806  10.810
21656SOL    HW266976   5.401   7.655  10.800
21657SOL     OW66977   5.795  10.777   1.020
21657SOL    HW166978   5.704  10.786   0.991
21657SOL    HW266979   5.809  10.852   1.078
21658SOL     OW66980   7.595   9.854  10.094
21658SOL    HW166981   7.508   9.834  10.128
21658SOL    HW266982   7.651   9.784  10.129
21659SOL     OW66983   5.803   0.455   0.168
21659SOL    HW166984   5.799   0.515   0.094
21659SOL    HW266985   5.790   0.368   0.129
21660SOL     OW66986   3.003   8.285   2.984
21660SOL    HW166987   3.070   8.221   3.009
21660SOL    HW266988   2.975   8.325   3.066
21661SOL     OW66989  10.890   1.499   7.835
21661SOL    HW166990  10.970   1.539   7.868
21661SOL    HW266991  10.825   1.512   7.904
21662SOL     OW66992   8.392   3.245   5.870
21662SOL    HW166993   8.310   3.294   5.864
21662SOL    HW266994   8.379   3.168   5.813
21663SOL     OW66995   5.748  10.842   2.463
21663SOL    HW166996   5.703  10.767   2.424
21663SOL    HW266997   5.708  10.852   2.549
21664SOL     OW66998   3.051   9.180   5.995
21664SOL    HW166999   3.024   9.119   6.063
21664SOL    HW267000   2.975   9.186   5.937
21665SOL     OW67001   8.955   1.770   0.783
21665SOL    HW167002   8.991   1.825   0.852
21665SOL    HW267003   8.962   1.681   0.817
21666SOL     OW67004   0.174   3.360   7.865
21666SOL    HW167005   0.097   3.327   7.912
21666SOL    HW267006   0.166   3.321   7.778
21667SOL     OW67007   2.917   6.781   1.320
21667SOL    HW167008   2.943   6.740   1.237
21667SOL    HW267009   2.866   6.857   1.294
21668SOL     OW67010   3.574   5.577   9.460
21668SOL    HW167011   3.589   5.539   9.546
21668SOL    HW267012   3.546   5.503   9.406
21669SOL     OW67013   1.582   6.903  10.232
21669SOL    HW167014   1.593   6.994  10.259
21669SOL    HW267015   1.671   6.872  10.214
21670SOL     OW67016   4.716   0.306   7.141
21670SOL    HW167017   4.735   0.308   7.234
21670SOL    HW267018   4.636   0.358   7.131
21671SOL     OW67019   1.614  10.779   5.992
21671SOL    HW167020   1.697  10.819   5.966
21671SOL    HW267021   1.549  10.848   5.980
21672SOL     OW67022   4.574   0.908   3.917
21672SOL    HW167023   4.525   0.893   3.998
21672SOL    HW267024   4.653   0.855   3.927
21673SOL     OW67025   6.455   9.794   6.813
21673SOL    HW167026   6.397   9.769   6.741
21673SOL    HW267027   6.473   9.712   6.859
21674SOL     OW67028   5.703   6.571   7.992
21674SOL    HW167029   5.630   6.621   7.955
21674SOL    HW267030   5.762   6.557   7.918
21675SOL     OW67031   8.297   4.067   6.488
21675SOL    HW167032   8.362   4.127   6.524
21675SOL    HW267033   8.302   3.989   6.543
21676SOL     OW67034   5.778   3.376   2.053
21676SOL    HW167035   5.762   3.397   1.961
21676SOL    HW267036   5.846   3.437   2.080
21677SOL     OW67037   6.958   1.170   0.606
21677SOL    HW167038   6.968   1.088   0.556
21677SOL    HW267039   6.864   1.180   0.617
21678SOL     OW67040   5.411   6.399   1.124
21678SOL    HW167041   5.472   6.397   1.198
21678SOL    HW267042   5.326   6.381   1.162
21679SOL     OW67043   4.821   9.638   0.716
21679SOL    HW167044   4.758   9.693   0.669
21679SOL    HW267045   4.888   9.618   0.651
21680SOL     OW67046   2.444   6.215   8.694
21680SOL    HW167047   2.452   6.262   8.777
21680SOL    HW267048   2.447   6.122   8.718
21681SOL     OW67049   7.648  10.165   2.684
21681SOL    HW167050   7.707  10.188   2.755
21681SOL    HW267051   7.674  10.076   2.659
21682SOL     OW67052   5.785   9.517   7.040
21682SOL    HW167053   5.734   9.436   7.034
21682SOL    HW267054   5.870   9.494   7.002
21683SOL     OW67055   4.383   1.439   2.274
21683SOL    HW167056   4.327   1.516   2.275
21683SOL    HW267057   4.360   1.391   2.354
21684SOL     OW67058   3.074   5.424   7.102
21684SOL    HW167059   3.070   5.511   7.141
21684SOL    HW267060   3.151   5.426   7.045
21685SOL     OW67061   5.613   4.669   6.460
21685SOL    HW167062   5.589   4.742   6.516
21685SOL    HW267063   5.690   4.700   6.412
21686SOL     OW67064   8.019  10.848  10.166
21686SOL    HW167065   8.046  10.756  10.163
21686SOL    HW267066   8.088  10.895  10.119
21687SOL     OW67067   4.123   0.744   8.205
21687SOL    HW167068   4.184   0.693   8.259
21687SOL    HW267069   4.037   0.726   8.242
21688SOL     OW67070   0.460  10.626   6.496
21688SOL    HW167071   0.388  10.596   6.551
21688SOL    HW267072   0.486  10.548   6.446
21689SOL     OW67073   5.390  10.872   0.483
21689SOL    HW167074   5.460  10.899   0.542
21689SOL    HW267075   5.398  10.931   0.408
21690SOL     OW67076   0.687   6.279   6.384
21690SOL    HW167077   0.661   6.319   6.301
21690SOL    HW267078   0.748   6.209   6.359
21691SOL     OW67079   3.382   4.160   6.257
21691SOL    HW167080   3.361   4.197   6.171
21691SOL    HW267081   3.461   4.108   6.241
21692SOL     OW67082   8.149   2.557   7.968
21692SOL    HW167083   8.149   2.652   7.971
21692SOL    HW267084   8.186   2.530   8.052
21693SOL     OW67085   4.390   0.806   8.913
21693SOL    HW167086   4.485   0.816   8.914
21693SOL    HW267087   4.360   0.855   8.989
21694SOL     OW67088   3.525   2.765   1.370
21694SOL    HW167089   3.524   2.723   1.284
21694SOL    HW267090   3.439   2.745   1.407
21695SOL     OW67091   1.756   8.345   0.779
21695SOL    HW167092   1.717   8.322   0.694
21695SOL    HW267093   1.850   8.349   0.761
21696SOL     OW67094   7.265   0.861   8.234
21696SOL    HW167095   7.312   0.877   8.316
21696SOL    HW267096   7.315   0.909   8.167
21697SOL     OW67097   2.275   2.575   0.057
21697SOL    HW167098   2.318   2.554   0.140
21697SOL    HW267099   2.311   2.511  -0.005
21698SOL     OW67100   7.426   0.017   9.508
21698SOL    HW167101   7.474  -0.049   9.558
21698SOL    HW267102   7.400   0.083   9.572
21699SOL     OW67103  10.360   9.161   0.368
21699SOL    HW167104  10.267   9.150   0.387
21699SOL    HW267105  10.399   9.077   0.391
21700SOL     OW67106   4.281   7.903   4.060
21700SOL    HW167107   4.373   7.927   4.075
21700SOL    HW267108   4.232   7.953   4.125
21701SOL     OW67109   5.940   8.975   3.959
21701SOL    HW167110   5.943   9.017   3.873
21701SOL    HW267111   5.883   9.030   4.011
21702SOL     OW67112   0.266   8.759   8.148
21702SOL    HW167113   0.189   8.743   8.202
21702SOL    HW267114   0.231   8.769   8.059
21703SOL     OW67115   1.627   6.173  10.805
21703SOL    HW167116   1.641   6.261  10.771
21703SOL    HW267117   1.563   6.184  10.875
21704SOL     OW67118   3.364   4.997   1.031
21704SOL    HW167119   3.286   5.049   1.014
21704SOL    HW267120   3.415   5.003   0.950
21705SOL     OW67121   5.190   7.043   2.025
21705SOL    HW167122   5.131   7.053   1.950
21705SOL    HW267123   5.263   6.991   1.991
21706SOL     OW67124   3.211   3.344   9.139
21706SOL    HW167125   3.281   3.356   9.203
21706SOL    HW267126   3.188   3.432   9.111
21707SOL     OW67127   4.168   6.591   8.822
21707SOL    HW167128   4.158   6.499   8.846
21707SOL    HW267129   4.100   6.636   8.872
21708SOL     OW67130   1.871   6.486   1.226
21708SOL    HW167131   1.886   6.501   1.132
21708SOL    HW267132   1.797   6.425   1.229
21709SOL     OW67133   2.826  10.258   7.200
21709SOL    HW167134   2.899  10.196   7.194
21709SOL    HW267135   2.772  10.238   7.123
21710SOL     OW67136   0.240   9.046   2.897
21710SOL    HW167137   0.156   9.090   2.910
21710SOL    HW267138   0.218   8.967   2.847
21711SOL     OW67139   5.444   1.790   1.140
21711SOL    HW167140   5.510   1.857   1.154
21711SOL    HW267141   5.371   1.815   1.196
21712SOL     OW67142   8.449  10.127  10.676
21712SOL    HW167143   8.428  10.047  10.627
21712SOL    HW267144   8.412  10.112  10.763
21713SOL     OW67145   3.056   5.302   1.527
21713SOL    HW167146   3.029   5.394   1.530
21713SOL    HW267147   3.148   5.303   1.553
21714SOL     OW67148   3.929   0.341   6.331
21714SOL    HW167149   4.008   0.381   6.294
21714SOL    HW267150   3.936   0.248   6.306
21715SOL     OW67151   0.900   7.630   7.815
21715SOL    HW167152   0.940   7.675   7.889
21715SOL    HW267153   0.973   7.583   7.773
21716SOL     OW67154   4.014   6.275   8.026
21716SOL    HW167155   4.053   6.194   8.059
21716SOL    HW267156   3.926   6.277   8.064
21717SOL     OW67157   7.873   9.330   4.866
21717SOL    HW167158   7.933   9.309   4.794
21717SOL    HW267159   7.840   9.245   4.895
21718SOL     OW67160   9.797   4.857   7.441
21718SOL    HW167161   9.800   4.780   7.384
21718SOL    HW267162   9.888   4.887   7.445
21719SOL     OW67163   3.736   3.268   8.111
21719SOL    HW167164   3.824   3.264   8.072
21719SOL    HW267165   3.737   3.347   8.164
21720SOL     OW67166  10.165   5.063   5.763
21720SOL    HW167167  10.085   5.111   5.744
21720SOL    HW267168  10.155   5.033   5.853
21721SOL     OW67169   8.219  10.683   7.489
21721SOL    HW167170   8.158  10.752   7.515
21721SOL    HW267171   8.168  10.625   7.433
21722SOL     OW67172   0.742   3.274   0.274
21722SOL    HW167173   0.734   3.341   0.206
21722SOL    HW267174   0.672   3.212   0.254
21723SOL     OW67175   0.028   2.973   7.754
21723SOL    HW167176  -0.040   2.911   7.728
21723SOL    HW267177   0.028   2.970   7.849
21724SOL     OW67178   2.077   0.644   9.869
21724SOL    HW167179   2.061   0.702   9.943
21724SOL    HW267180   2.172   0.646   9.856
21725SOL     OW67181   0.425   6.097   9.081
21725SOL    HW167182   0.448   6.004   9.069
21725SOL    HW267183   0.395   6.125   8.994
21726SOL     OW67184   1.805  10.385   0.402
21726SOL    HW167185   1.839  10.341   0.324
21726SOL    HW267186   1.883  10.424   0.443
21727SOL     OW67187   7.553   1.425   6.081
21727SOL    HW167188   7.495   1.390   6.013
21727SOL    HW267189   7.510   1.403   6.163
21728SOL     OW67190   2.839   8.001  10.588
21728SOL    HW167191   2.812   7.927  10.532
21728SOL    HW267192   2.757   8.036  10.623
21729SOL     OW67193   2.710   8.116   3.243
21729SOL    HW167194   2.742   8.179   3.178
21729SOL    HW267195   2.785   8.059   3.260
21730SOL     OW67196   9.516   2.128   8.103
21730SOL    HW167197   9.531   2.204   8.047
21730SOL    HW267198   9.426   2.138   8.134
21731SOL     OW67199   4.247   4.825   2.669
21731SOL    HW167200   4.299   4.865   2.739
21731SOL    HW267201   4.300   4.751   2.639
21732SOL     OW67202   2.325   6.507   8.193
21732SOL    HW167203   2.269   6.432   8.214
21732SOL    HW267204   2.393   6.470   8.136
21733SOL     OW67205   8.255   9.719   9.428
21733SOL    HW167206   8.203   9.669   9.491
21733SOL    HW267207   8.191   9.755   9.367
21734SOL     OW67208   9.716   6.515   9.979
21734SOL    HW167209   9.651   6.571   9.937
21734SOL    HW267210   9.664   6.455  10.033
21735SOL     OW67211   4.270   0.708   4.463
21735SOL    HW167212   4.209   0.761   4.411
21735SOL    HW267213   4.280   0.756   4.545
21736SOL     OW67214   2.469   1.312   5.791
21736SOL    HW167215   2.420   1.319   5.709
21736SOL    HW267216   2.423   1.244   5.841
21737SOL     OW67217  10.878  10.906   7.299
21737SOL    HW167218  10.925  10.851   7.361
21737SOL    HW267219  10.788  10.907   7.330
21738SOL     OW67220   2.273   8.379  10.913
21738SOL    HW167221   2.206   8.391  10.980
21738SOL    HW267222   2.232   8.322  10.848
21739SOL     OW67223   7.379   9.713   9.773
21739SOL    HW167224   7.351   9.703   9.682
21739SOL    HW267225   7.299   9.738   9.820
21740SOL     OW67226  10.411   0.182   8.302
21740SOL    HW167227  10.347   0.167   8.232
21740SOL    HW267228  10.397   0.109   8.363
21741SOL     OW67229   8.152   7.503   7.081
21741SOL    HW167230   8.148   7.536   7.170
21741SOL    HW267231   8.185   7.413   7.090
21742SOL     OW67232   9.130  10.737   9.623
21742SOL    HW167233   9.130  10.641   9.620
21742SOL    HW267234   9.155  10.759   9.713
21743SOL     OW67235   5.494   5.097  10.485
21743SOL    HW167236   5.460   5.169  10.433
21743SOL    HW267237   5.419   5.064  10.534
21744SOL     OW67238   9.476   2.964   8.695
21744SOL    HW167239   9.427   2.886   8.669
21744SOL    HW267240   9.422   3.037   8.666
21745SOL     OW67241   9.786   0.281   1.372
21745SOL    HW167242   9.838   0.313   1.445
21745SOL    HW267243   9.851   0.255   1.306
21746SOL     OW67244   1.757   6.649   2.423
21746SOL    HW167245   1.794   6.588   2.359
21746SOL    HW267246   1.757   6.600   2.505
21747SOL     OW67247   1.465   0.447  10.665
21747SOL    HW167248   1.446   0.353  10.672
21747SOL    HW267249   1.553   0.456  10.702
21748SOL     OW67250   0.884   9.568   3.120
21748SOL    HW167251   0.875   9.474   3.135
21748SOL    HW267252   0.838   9.584   3.037
21749SOL     OW67253   0.591   3.161   1.032
21749SOL    HW167254   0.644   3.240   1.023
21749SOL    HW267255   0.507   3.192   1.064
21750SOL     OW67256   5.636   2.002   5.829
21750SOL    HW167257   5.707   2.065   5.836
21750SOL    HW267258   5.603   1.992   5.918
21751SOL     OW67259   3.482   0.296  10.660
21751SOL    HW167260   3.528   0.241  10.596
21751SOL    HW267261   3.429   0.234  10.710
21752SOL     OW67262   1.031   7.763  10.270
21752SOL    HW167263   1.121   7.749  10.240
21752SOL    HW267264   1.025   7.857  10.284
21753SOL     OW67265   8.719  10.800   8.320
21753SOL    HW167266   8.753  10.831   8.404
21753SOL    HW267267   8.665  10.724   8.342
21754SOL     OW67268   0.286  10.217   9.316
21754SOL    HW167269   0.298  10.132   9.272
21754SOL    HW267270   0.290  10.196   9.409
21755SOL     OW67271   3.102   7.999   2.742
21755SOL    HW167272   3.147   7.917   2.721
21755SOL    HW267273   3.166   8.067   2.720
21756SOL     OW67274   4.023   8.964   7.451
21756SOL    HW167275   4.018   8.974   7.356
21756SOL    HW267276   3.992   9.047   7.485
21757SOL     OW67277   3.649   7.590   7.590
21757SOL    HW167278   3.690   7.506   7.570
21757SOL    HW267279   3.711   7.655   7.557
21758SOL     OW67280   8.802   6.107   0.834
21758SOL    HW167281   8.723   6.157   0.816
21758SOL    HW267282   8.771   6.024   0.870
21759SOL     OW67283   8.756   1.645   7.404
21759SOL    HW167284   8.710   1.606   7.478
21759SOL    HW267285   8.814   1.710   7.443
21760SOL     OW67286  10.261   1.044   4.879
21760SOL    HW167287  10.210   0.977   4.833
21760SOL    HW267288  10.336   0.996   4.915
21761SOL     OW67289   3.035   9.775   0.927
21761SOL    HW167290   2.974   9.794   0.855
21761SOL    HW267291   3.011   9.687   0.956
21762SOL     OW67292   2.678   3.075   5.288
21762SOL    HW167293   2.617   3.034   5.349
21762SOL    HW267294   2.627   3.087   5.207
21763SOL     OW67295   7.246   7.575   7.812
21763SOL    HW167296   7.235   7.669   7.803
21763SOL    HW267297   7.320   7.554   7.755
21764SOL     OW67298  10.471   6.169   4.142
21764SOL    HW167299  10.546   6.154   4.200
21764SOL    HW267300  10.502   6.235   4.080
21765SOL     OW67301   5.511   8.801   9.270
21765SOL    HW167302   5.602   8.813   9.297
21765SOL    HW267303   5.517   8.778   9.177
21766SOL     OW67304   3.534   1.723   9.981
21766SOL    HW167305   3.540   1.639   9.936
21766SOL    HW267306   3.444   1.751   9.967
21767SOL     OW67307   4.577   7.800   5.971
21767SOL    HW167308   4.560   7.759   6.056
21767SOL    HW267309   4.497   7.786   5.921
21768SOL     OW67310  10.490   5.984   8.569
21768SOL    HW167311  10.432   6.042   8.617
21768SOL    HW267312  10.530   6.039   8.502
21769SOL     OW67313   6.834   7.426   1.946
21769SOL    HW167314   6.918   7.405   1.905
21769SOL    HW267315   6.855   7.490   2.014
21770SOL     OW67316  10.676   4.039   8.776
21770SOL    HW167317  10.597   3.997   8.811
21770SOL    HW267318  10.643   4.114   8.727
21771SOL     OW67319  11.029   1.239   2.528
21771SOL    HW167320  11.101   1.233   2.465
21771SOL    HW267321  10.985   1.320   2.505
21772SOL     OW67322   1.502   8.502   5.138
21772SOL    HW167323   1.442   8.503   5.212
21772SOL    HW267324   1.550   8.584   5.144
21773SOL     OW67325   7.937   6.708   5.764
21773SOL    HW167326   8.000   6.642   5.733
21773SOL    HW267327   7.942   6.703   5.859
21774SOL     OW67328   1.730   0.740   9.248
21774SOL    HW167329   1.657   0.769   9.194
21774SOL    HW267330   1.764   0.820   9.288
21775SOL     OW67331   6.917   5.239  10.903
21775SOL    HW167332   6.989   5.196  10.950
21775SOL    HW267333   6.862   5.277  10.971
21776SOL     OW67334   6.312   3.658   0.935
21776SOL    HW167335   6.365   3.584   0.904
21776SOL    HW267336   6.234   3.617   0.973
21777SOL     OW67337   3.703  10.458   7.416
21777SOL    HW167338   3.686  10.422   7.503
21777SOL    HW267339   3.747  10.387   7.369
21778SOL     OW67340   9.924   1.560   0.931
21778SOL    HW167341   9.880   1.601   1.005
21778SOL    HW267342   9.892   1.469   0.931
21779SOL     OW67343   0.016   0.913   5.802
21779SOL    HW167344   0.099   0.946   5.767
21779SOL    HW267345   0.006   0.955   5.887
21780SOL     OW67346   6.892   2.428  10.592
21780SOL    HW167347   6.926   2.476  10.516
21780SOL    HW267348   6.913   2.336  10.573
21781SOL     OW67349   5.921   8.056   1.974
21781SOL    HW167350   5.860   7.984   1.957
21781SOL    HW267351   5.871   8.135   1.955
21782SOL     OW67352   7.617   2.572   8.792
21782SOL    HW167353   7.592   2.509   8.724
21782SOL    HW267354   7.698   2.611   8.759
21783SOL     OW67355   4.097   8.477   9.076
21783SOL    HW167356   4.047   8.557   9.063
21783SOL    HW267357   4.139   8.461   8.991
21784SOL     OW67358   1.437   0.071   9.008
21784SOL    HW167359   1.370   0.003   9.002
21784SOL    HW267360   1.437   0.097   9.100
21785SOL     OW67361   5.062  10.023   9.751
21785SOL    HW167362   5.016  10.029   9.835
21785SOL    HW267363   5.046   9.933   9.721
21786SOL     OW67364   7.285   0.848   9.630
21786SOL    HW167365   7.239   0.764   9.624
21786SOL    HW267366   7.238   0.896   9.698
21787SOL     OW67367   1.969   6.818   0.414
21787SOL    HW167368   1.885   6.774   0.404
21787SOL    HW267369   1.948   6.903   0.451
21788SOL     OW67370   6.647   0.130   6.717
21788SOL    HW167371   6.642   0.060   6.651
21788SOL    HW267372   6.676   0.207   6.668
21789SOL     OW67373   8.069  10.973   2.073
21789SOL    HW167374   8.098  11.062   2.053
21789SOL    HW267375   8.039  10.977   2.164
21790SOL     OW67376   3.154   7.649   4.565
21790SOL    HW167377   3.199   7.592   4.502
21790SOL    HW267378   3.107   7.588   4.622
21791SOL     OW67379   8.854   7.120   9.918
21791SOL    HW167380   8.855   7.198   9.973
21791SOL    HW267381   8.946   7.104   9.897
21792SOL     OW67382   3.275   2.244   2.146
21792SOL    HW167383   3.183   2.233   2.168
21792SOL    HW267384   3.322   2.201   2.217
21793SOL     OW67385   5.955   6.979   8.031
21793SOL    HW167386   5.860   6.970   8.033
21793SOL    HW267387   5.973   7.064   8.071
21794SOL     OW67388   1.453   3.206   0.868
21794SOL    HW167389   1.461   3.286   0.920
21794SOL    HW267390   1.367   3.171   0.891
21795SOL     OW67391   9.979   0.014   9.847
21795SOL    HW167392  10.041   0.067   9.897
21795SOL    HW267393   9.924  -0.028   9.913
21796SOL     OW67394   8.550   1.070   7.477
21796SOL    HW167395   8.549   1.160   7.444
21796SOL    HW267396   8.642   1.044   7.473
21797SOL     OW67397   8.516   5.041   8.880
21797SOL    HW167398   8.603   5.052   8.841
21797SOL    HW267399   8.516   4.951   8.913
21798SOL     OW67400   7.634   2.238   5.143
21798SOL    HW167401   7.631   2.317   5.090
21798SOL    HW267402   7.614   2.167   5.081
21799SOL     OW67403   7.740   5.705   7.024
21799SOL    HW167404   7.741   5.625   7.076
21799SOL    HW267405   7.825   5.746   7.041
21800SOL     OW67406   0.626   0.087   8.846
21800SOL    HW167407   0.681   0.041   8.782
21800SOL    HW267408   0.686   0.112   8.916
21801SOL     OW67409   0.671   9.729   2.547
21801SOL    HW167410   0.662   9.634   2.539
21801SOL    HW267411   0.760   9.742   2.579
21802SOL     OW67412   8.491   7.393   9.467
21802SOL    HW167413   8.468   7.344   9.546
21802SOL    HW267414   8.507   7.482   9.498
21803SOL     OW67415   7.847   0.917   6.312
21803SOL    HW167416   7.764   0.878   6.284
21803SOL    HW267417   7.823   1.004   6.342
21804SOL     OW67418   8.187   0.991   1.640
21804SOL    HW167419   8.281   0.980   1.627
21804SOL    HW267420   8.152   1.004   1.551
21805SOL     OW67421   3.988   2.837  10.221
21805SOL    HW167422   3.912   2.836  10.162
21805SOL    HW267423   3.952   2.862  10.306
21806SOL     OW67424   3.271   9.241   0.699
21806SOL    HW167425   3.365   9.221   0.694
21806SOL    HW267426   3.230   9.173   0.645
21807SOL     OW67427   8.451   9.484   2.389
21807SOL    HW167428   8.451   9.414   2.323
21807SOL    HW267429   8.481   9.561   2.341
21808SOL     OW67430  10.780   3.279   1.644
21808SOL    HW167431  10.851   3.310   1.701
21808SOL    HW267432  10.825   3.237   1.570
21809SOL     OW67433   3.175   0.158   6.838
21809SOL    HW167434   3.243   0.199   6.784
21809SOL    HW267435   3.188   0.194   6.925
21810SOL     OW67436   0.733  10.593   2.030
21810SOL    HW167437   0.780  10.544   2.097
21810SOL    HW267438   0.665  10.533   1.999
21811SOL     OW67439   0.537   5.099  10.582
21811SOL    HW167440   0.519   5.010  10.613
21811SOL    HW267441   0.631   5.110  10.594
21812SOL     OW67442   9.536   5.478   6.794
21812SOL    HW167443   9.583   5.557   6.821
21812SOL    HW267444   9.550   5.473   6.699
21813SOL     OW67445   4.539   7.416   2.102
21813SOL    HW167446   4.496   7.501   2.106
21813SOL    HW267447   4.610   7.422   2.166
21814SOL     OW67448   4.595   2.333   0.113
21814SOL    HW167449   4.579   2.243   0.144
21814SOL    HW267450   4.589   2.387   0.192
21815SOL     OW67451   6.995   4.313   9.093
21815SOL    HW167452   6.973   4.406   9.097
21815SOL    HW267453   7.061   4.301   9.161
21816SOL     OW67454   4.308  10.016   1.488
21816SOL    HW167455   4.341   9.929   1.510
21816SOL    HW267456   4.219  10.000   1.457
21817SOL     OW67457   8.711   2.238   4.614
21817SOL    HW167458   8.712   2.211   4.706
21817SOL    HW267459   8.761   2.319   4.612
21818SOL     OW67460   1.988  10.955   3.406
21818SOL    HW167461   2.064  11.012   3.416
21818SOL    HW267462   1.938  10.994   3.334
21819SOL     OW67463   4.135  10.993  10.035
21819SOL    HW167464   4.208  10.990   9.973
21819SOL    HW267465   4.064  10.946   9.991
21820SOL     OW67466   1.980   1.011   0.494
21820SOL    HW167467   2.039   1.068   0.445
21820SOL    HW267468   1.994   0.924   0.455
21821SOL     OW67469   2.886   1.707  10.192
21821SOL    HW167470   2.871   1.711  10.286
21821SOL    HW267471   2.827   1.638  10.161
21822SOL     OW67472   6.158   0.692   5.217
21822SOL    HW167473   6.134   0.772   5.263
21822SOL    HW267474   6.206   0.640   5.281
21823SOL     OW67475   8.154   5.309   8.949
21823SOL    HW167476   8.122   5.358   8.873
21823SOL    HW267477   8.249   5.309   8.939
21824SOL     OW67478   4.612   3.614   3.264
21824SOL    HW167479   4.556   3.685   3.233
21824SOL    HW267480   4.554   3.557   3.314
21825SOL     OW67481   3.271  10.658   8.004
21825SOL    HW167482   3.257  10.586   7.942
21825SOL    HW267483   3.364  10.678   7.997
21826SOL     OW67484   5.582   3.925   8.184
21826SOL    HW167485   5.567   3.982   8.109
21826SOL    HW267486   5.576   3.982   8.260
21827SOL     OW67487   7.018   6.562   6.392
21827SOL    HW167488   6.933   6.580   6.353
21827SOL    HW267489   7.000   6.552   6.485
21828SOL     OW67490   6.675   9.807   0.387
21828SOL    HW167491   6.584   9.827   0.366
21828SOL    HW267492   6.675   9.713   0.405
21829SOL     OW67493   7.286   0.435   0.859
21829SOL    HW167494   7.251   0.443   0.770
21829SOL    HW267495   7.368   0.484   0.857
21830SOL     OW67496   5.601   0.370  10.889
21830SOL    HW167497   5.627   0.325  10.969
21830SOL    HW267498   5.563   0.452  10.919
21831SOL     OW67499   9.539   6.532   1.176
21831SOL    HW167500   9.600   6.562   1.243
21831SOL    HW267501   9.467   6.491   1.224
21832SOL     OW67502   8.628   5.354   8.605
21832SOL    HW167503   8.679   5.395   8.535
21832SOL    HW267504   8.694   5.326   8.669
21833SOL     OW67505   2.188   1.835   6.541
21833SOL    HW167506   2.175   1.756   6.487
21833SOL    HW267507   2.144   1.904   6.492
21834SOL     OW67508   7.089   0.893   5.149
21834SOL    HW167509   7.049   0.975   5.178
21834SOL    HW267510   7.074   0.891   5.054
21835SOL     OW67511  10.343   8.684   2.119
21835SOL    HW167512  10.381   8.767   2.090
21835SOL    HW267513  10.361   8.623   2.047
21836SOL     OW67514   8.896   4.383   4.329
21836SOL    HW167515   8.805   4.367   4.304
21836SOL    HW267516   8.917   4.468   4.291
21837SOL     OW67517   3.847   6.399   0.277
21837SOL    HW167518   3.819   6.368   0.190
21837SOL    HW267519   3.895   6.480   0.259
21838SOL     OW67520   7.658   1.054   7.317
21838SOL    HW167521   7.750   1.029   7.309
21838SOL    HW267522   7.624   0.997   7.386
21839SOL     OW67523   8.916  10.818   2.343
21839SOL    HW167524   8.831  10.798   2.305
21839SOL    HW267525   8.979  10.789   2.277
21840SOL     OW67526   2.211   5.686  10.055
21840SOL    HW167527   2.226   5.727   9.970
21840SOL    HW267528   2.266   5.607  10.054
21841SOL     OW67529   3.980  10.402  10.492
21841SOL    HW167530   4.054  10.447  10.452
21841SOL    HW267531   3.978  10.316  10.449
21842SOL     OW67532   3.634  10.760   2.323
21842SOL    HW167533   3.655  10.841   2.369
21842SOL    HW267534   3.666  10.691   2.380
21843SOL     OW67535   3.405   7.080   9.269
21843SOL    HW167536   3.469   7.150   9.261
21843SOL    HW267537   3.441   7.008   9.216
21844SOL     OW67538   6.976   8.694   1.196
21844SOL    HW167539   6.890   8.654   1.205
21844SOL    HW267540   6.997   8.727   1.283
21845SOL     OW67541   2.580  10.404   7.878
21845SOL    HW167542   2.501  10.351   7.888
21845SOL    HW267543   2.610  10.420   7.967
21846SOL     OW67544  10.189   1.576  10.646
21846SOL    HW167545  10.227   1.601  10.562
21846SOL    HW267546  10.164   1.484  10.634
21847SOL     OW67547   3.855   3.421  10.491
21847SOL    HW167548   3.792   3.492  10.480
21847SOL    HW267549   3.904   3.443  10.570
21848SOL     OW67550   5.641   9.749   3.047
21848SOL    HW167551   5.561   9.787   3.082
21848SOL    HW267552   5.617   9.659   3.023
21849SOL     OW67553   1.722   9.456   6.855
21849SOL    HW167554   1.645   9.512   6.844
21849SOL    HW267555   1.688   9.376   6.895
21850SOL     OW67556   1.671   3.496   0.684
21850SOL    HW167557   1.670   3.575   0.630
21850SOL    HW267558   1.763   3.471   0.689
21851SOL     OW67559   8.118   5.290   0.608
21851SOL    HW167560   8.131   5.328   0.695
21851SOL    HW267561   8.180   5.337   0.552
21852SOL     OW67562   3.379   5.923   9.985
21852SOL    HW167563   3.348   6.004  10.026
21852SOL    HW267564   3.475   5.929   9.989
21853SOL     OW67565  10.657   6.724   9.644
21853SOL    HW167566  10.584   6.725   9.705
21853SOL    HW267567  10.680   6.631   9.636
21854SOL     OW67568   3.535   4.861   8.321
21854SOL    HW167569   3.560   4.895   8.407
21854SOL    HW267570   3.618   4.837   8.279
21855SOL     OW67571   2.467  10.750   5.786
21855SOL    HW167572   2.560  10.756   5.809
21855SOL    HW267573   2.433  10.680   5.841
21856SOL     OW67574   9.301   6.254   0.184
21856SOL    HW167575   9.250   6.335   0.180
21856SOL    HW267576   9.340   6.245   0.097
21857SOL     OW67577   0.340   1.117   3.863
21857SOL    HW167578   0.320   1.210   3.851
21857SOL    HW267579   0.308   1.097   3.951
21858SOL     OW67580   3.405   4.059   1.373
21858SOL    HW167581   3.318   4.022   1.386
21858SOL    HW267582   3.442   4.066   1.461
21859SOL     OW67583   9.108   4.368   9.572
21859SOL    HW167584   9.068   4.454   9.560
21859SOL    HW267585   9.200   4.387   9.593
21860SOL     OW67586   3.297   0.528  10.713
21860SOL    HW167587   3.371   0.480  10.675
21860SOL    HW267588   3.336   0.609  10.745
21861SOL     OW67589   5.929   4.354   2.859
21861SOL    HW167590   5.960   4.444   2.858
21861SOL    HW267591   5.992   4.306   2.805
21862SOL     OW67592   1.100   7.827   0.521
21862SOL    HW167593   1.150   7.828   0.439
21862SOL    HW267594   1.162   7.794   0.586
21863SOL     OW67595   3.961   4.341   8.288
21863SOL    HW167596   3.910   4.419   8.310
21863SOL    HW267597   4.030   4.373   8.230
21864SOL     OW67598   0.316   5.177   0.807
21864SOL    HW167599   0.325   5.272   0.809
21864SOL    HW267600   0.345   5.148   0.893
21865SOL     OW67601   2.216   0.869   1.184
21865SOL    HW167602   2.184   0.865   1.093
21865SOL    HW267603   2.309   0.848   1.177
21866SOL     OW67604   4.040   3.396   0.397
21866SOL    HW167605   4.101   3.375   0.326
21866SOL    HW267606   4.096   3.423   0.469
21867SOL     OW67607   7.572   3.028   0.170
21867SOL    HW167608   7.500   3.014   0.109
21867SOL    HW267609   7.603   2.940   0.191
21868SOL     OW67610   6.604   6.480   8.105
21868SOL    HW167611   6.557   6.429   8.170
21868SOL    HW267612   6.565   6.567   8.109
21869SOL     OW67613   9.097   5.081   9.788
21869SOL    HW167614   9.069   5.149   9.727
21869SOL    HW267615   9.152   5.023   9.735
21870SOL     OW67616   0.012   6.065  10.894
21870SOL    HW167617   0.039   6.056  10.802
21870SOL    HW267618   0.071   6.130  10.931
21871SOL     OW67619   1.003   4.597   4.110
21871SOL    HW167620   1.009   4.678   4.160
21871SOL    HW267621   1.064   4.609   4.037
21872SOL     OW67622   4.651   0.068  10.813
21872SOL    HW167623   4.601  -0.007  10.845
21872SOL    HW267624   4.641   0.134  10.881
21873SOL     OW67625   0.954   7.456   4.276
21873SOL    HW167626   1.000   7.427   4.197
21873SOL    HW267627   0.901   7.380   4.302
21874SOL     OW67628   3.591   3.198   6.641
21874SOL    HW167629   3.591   3.283   6.685
21874SOL    HW267630   3.539   3.141   6.698
21875SOL     OW67631   7.450   8.505   6.957
21875SOL    HW167632   7.443   8.424   7.007
21875SOL    HW267633   7.542   8.508   6.930
21876SOL     OW67634   8.438   2.409   7.993
21876SOL    HW167635   8.396   2.328   8.022
21876SOL    HW267636   8.405   2.423   7.904
21877SOL     OW67637  10.637   6.057   3.564
21877SOL    HW167638  10.634   6.144   3.524
21877SOL    HW267639  10.704   6.010   3.513
21878SOL     OW67640   8.663   6.115   8.221
21878SOL    HW167641   8.755   6.105   8.246
21878SOL    HW267642   8.628   6.179   8.282
21879SOL     OW67643   9.029   2.541   0.919
21879SOL    HW167644   9.050   2.466   0.862
21879SOL    HW267645   8.978   2.599   0.863
21880SOL     OW67646   7.365  10.617  10.054
21880SOL    HW167647   7.330  10.648   9.970
21880SOL    HW267648   7.362  10.694  10.111
21881SOL     OW67649   8.100   1.187   5.229
21881SOL    HW167650   8.101   1.169   5.135
21881SOL    HW267651   8.042   1.262   5.238
21882SOL     OW67652   5.482   7.537   8.148
21882SOL    HW167653   5.509   7.618   8.190
21882SOL    HW267654   5.516   7.543   8.059
21883SOL     OW67655   7.724   0.606   0.568
21883SOL    HW167656   7.732   0.653   0.650
21883SOL    HW267657   7.654   0.650   0.521
21884SOL     OW67658   3.364   2.558   3.196
21884SOL    HW167659   3.454   2.590   3.193
21884SOL    HW267660   3.351   2.531   3.287
21885SOL     OW67661   8.687  10.541  10.636
21885SOL    HW167662   8.766  10.556  10.688
21885SOL    HW267663   8.643  10.626  10.634
21886SOL     OW67664   7.894   0.917   3.418
21886SOL    HW167665   7.969   0.857   3.409
21886SOL    HW267666   7.920   0.977   3.488
21887SOL     OW67667   6.846   0.929   2.077
21887SOL    HW167668   6.795   0.848   2.069
21887SOL    HW267669   6.821   0.981   2.000
21888SOL     OW67670   2.418   4.958   2.491
21888SOL    HW167671   2.333   4.973   2.531
21888SOL    HW267672   2.439   5.041   2.448
21889SOL     OW67673   5.978   9.509   7.775
21889SOL    HW167674   5.927   9.590   7.772
21889SOL    HW267675   5.932   9.449   7.716
21890SOL     OW67676  10.986   6.325   4.269
21890SOL    HW167677  10.979   6.404   4.322
21890SOL    HW267678  10.971   6.355   4.179
21891SOL     OW67679   4.830   5.163   0.088
21891SOL    HW167680   4.911   5.146   0.136
21891SOL    HW267681   4.791   5.076   0.076
21892SOL     OW67682   6.287   2.999   9.706
21892SOL    HW167683   6.344   3.042   9.770
21892SOL    HW267684   6.346   2.977   9.633
21893SOL     OW67685  10.685   1.957   4.956
21893SOL    HW167686  10.616   2.022   4.969
21893SOL    HW267687  10.693   1.949   4.861
21894SOL     OW67688   8.744   0.044   2.221
21894SOL    HW167689   8.683   0.030   2.293
21894SOL    HW267690   8.732  -0.033   2.164
21895SOL     OW67691   4.718   4.442   4.035
21895SOL    HW167692   4.734   4.478   3.948
21895SOL    HW267693   4.783   4.372   4.044
21896SOL     OW67694   4.651  10.309  10.641
21896SOL    HW167695   4.691  10.336  10.723
21896SOL    HW267696   4.618  10.390  10.602
21897SOL     OW67697   8.324  10.290   9.948
21897SOL    HW167698   8.332  10.372   9.899
21897SOL    HW267699   8.409  10.247   9.936
21898SOL     OW67700   8.324   3.088   9.641
21898SOL    HW167701   8.280   3.125   9.564
21898SOL    HW267702   8.302   2.995   9.638
21899SOL     OW67703   0.445   8.636   2.058
21899SOL    HW167704   0.523   8.646   2.003
21899SOL    HW267705   0.391   8.712   2.037
21900SOL     OW67706   2.090   1.994   4.874
21900SOL    HW167707   2.098   1.903   4.904
21900SOL    HW267708   2.076   2.044   4.954
21901SOL     OW67709   5.133   3.550   8.320
21901SOL    HW167710   5.186   3.588   8.390
21901SOL    HW267711   5.082   3.623   8.286
21902SOL     OW67712  10.401   0.891  10.010
21902SOL    HW167713  10.408   0.940   9.928
21902SOL    HW267714  10.480   0.914  10.058
21903SOL     OW67715   5.354   6.571   6.742
21903SOL    HW167716   5.362   6.502   6.675
21903SOL    HW267717   5.338   6.523   6.823
21904SOL     OW67718   5.808   0.818   1.443
21904SOL    HW167719   5.787   0.762   1.517
21904SOL    HW267720   5.849   0.895   1.482
21905SOL     OW67721   1.350   1.084   4.169
21905SOL    HW167722   1.395   1.008   4.207
21905SOL    HW267723   1.380   1.087   4.078
21906SOL     OW67724   0.704  11.088  10.659
21906SOL    HW167725   0.691  11.127  10.745
21906SOL    HW267726   0.618  11.054  10.635
21907SOL     OW67727   0.488   8.992   5.677
21907SOL    HW167728   0.583   8.982   5.687
21907SOL    HW267729   0.469   9.079   5.712
21908SOL     OW67730   8.092  10.728   3.308
21908SOL    HW167731   8.165  10.789   3.296
21908SOL    HW267732   8.117  10.675   3.384
21909SOL     OW67733   5.862   9.272   2.010
21909SOL    HW167734   5.911   9.281   2.091
21909SOL    HW267735   5.902   9.336   1.951
21910SOL     OW67736   8.736   5.605   3.573
21910SOL    HW167737   8.723   5.651   3.490
21910SOL    HW267738   8.648   5.584   3.603
21911SOL     OW67739   9.177   0.640   3.728
21911SOL    HW167740   9.136   0.726   3.718
21911SOL    HW267741   9.112   0.578   3.694
21912SOL     OW67742   8.766   1.989   4.406
21912SOL    HW167743   8.722   1.946   4.332
21912SOL    HW267744   8.695   2.012   4.466
21913SOL     OW67745   0.031   0.634   1.016
21913SOL    HW167746  -0.019   0.708   1.049
21913SOL    HW267747   0.112   0.635   1.067
21914SOL     OW67748  10.165   2.256   5.601
21914SOL    HW167749  10.070   2.253   5.614
21914SOL    HW267750  10.196   2.169   5.629
21915SOL     OW67751   5.105   7.258   6.724
21915SOL    HW167752   5.054   7.335   6.749
21915SOL    HW267753   5.137   7.278   6.636
21916SOL     OW67754   6.742   7.826   1.845
21916SOL    HW167755   6.666   7.811   1.788
21916SOL    HW267756   6.743   7.750   1.904
21917SOL     OW67757   9.701   8.459   3.487
21917SOL    HW167758   9.766   8.522   3.456
21917SOL    HW267759   9.740   8.420   3.565
21918SOL     OW67760   9.715   9.474   5.276
21918SOL    HW167761   9.630   9.443   5.246
21918SOL    HW267762   9.748   9.403   5.331
21919SOL     OW67763   3.724   3.085   2.542
21919SOL    HW167764   3.753   3.171   2.571
21919SOL    HW267765   3.636   3.076   2.577
21920SOL     OW67766  10.299   7.538   3.345
21920SOL    HW167767  10.240   7.560   3.416
21920SOL    HW267768  10.246   7.486   3.284
21921SOL     OW67769   7.749   1.733   8.940
21921SOL    HW167770   7.750   1.676   9.017
21921SOL    HW267771   7.831   1.712   8.894
21922SOL     OW67772   8.403   8.359   1.148
21922SOL    HW167773   8.412   8.438   1.095
21922SOL    HW267774   8.386   8.391   1.236
21923SOL     OW67775   0.121   7.848   2.166
21923SOL    HW167776   0.070   7.782   2.214
21923SOL    HW267777   0.058   7.918   2.148
21924SOL     OW67778   2.041   1.633   3.705
21924SOL    HW167779   2.078   1.705   3.755
21924SOL    HW267780   2.072   1.554   3.749
21925SOL     OW67781   4.075  11.006   8.891
21925SOL    HW167782   4.036  10.932   8.938
21925SOL    HW267783   4.112  10.967   8.812
21926SOL     OW67784   7.871   2.365   8.506
21926SOL    HW167785   7.852   2.417   8.428
21926SOL    HW267786   7.947   2.312   8.482
21927SOL     OW67787   6.164   2.756   7.794
21927SOL    HW167788   6.124   2.830   7.748
21927SOL    HW267789   6.258   2.763   7.774
21928SOL     OW67790   0.827   1.923   9.293
21928SOL    HW167791   0.760   1.975   9.336
21928SOL    HW267792   0.787   1.895   9.210
21929SOL     OW67793   7.160   7.107   7.417
21929SOL    HW167794   7.163   7.019   7.378
21929SOL    HW267795   7.252   7.133   7.424
21930SOL     OW67796  10.502   0.839   0.348
21930SOL    HW167797  10.442   0.894   0.398
21930SOL    HW267798  10.463   0.833   0.261
21931SOL     OW67799   4.340   2.907   2.424
21931SOL    HW167800   4.430   2.932   2.447
21931SOL    HW267801   4.346   2.876   2.333
21932SOL     OW67802   8.614   1.434   0.124
21932SOL    HW167803   8.578   1.418   0.037
21932SOL    HW267804   8.667   1.513   0.115
21933SOL     OW67805   1.416   9.374   3.116
21933SOL    HW167806   1.469   9.318   3.058
21933SOL    HW267807   1.326   9.347   3.098
21934SOL     OW67808   8.385   9.818   4.096
21934SOL    HW167809   8.305   9.812   4.044
21934SOL    HW267810   8.394   9.731   4.136
21935SOL     OW67811   9.227   4.961   4.321
21935SOL    HW167812   9.164   5.031   4.336
21935SOL    HW267813   9.185   4.882   4.356
21936SOL     OW67814   4.899   1.187   8.978
21936SOL    HW167815   4.822   1.139   8.948
21936SOL    HW267816   4.925   1.143   9.059
21937SOL     OW67817   7.681   9.671   2.794
21937SOL    HW167818   7.723   9.710   2.870
21937SOL    HW267819   7.645   9.588   2.826
21938SOL     OW67820   4.054   6.501   1.384
21938SOL    HW167821   4.019   6.449   1.456
21938SOL    HW267822   4.091   6.579   1.425
21939SOL     OW67823   2.504  10.652   4.311
21939SOL    HW167824   2.503  10.570   4.360
21939SOL    HW267825   2.456  10.714   4.366
21940SOL     OW67826   7.130   1.028   1.736
21940SOL    HW167827   7.102   1.065   1.652
21940SOL    HW267828   7.223   1.051   1.742
21941SOL     OW67829   2.526   6.723   1.466
21941SOL    HW167830   2.475   6.791   1.422
21941SOL    HW267831   2.560   6.669   1.394
21942SOL     OW67832   8.968   1.651   9.631
21942SOL    HW167833   9.050   1.691   9.659
21942SOL    HW267834   8.905   1.673   9.699
21943SOL     OW67835   6.461   0.577   4.711
21943SOL    HW167836   6.392   0.514   4.688
21943SOL    HW267837   6.462   0.578   4.806
21944SOL     OW67838   7.392   8.847  10.545
21944SOL    HW167839   7.439   8.826  10.464
21944SOL    HW267840   7.324   8.780  10.551
21945SOL     OW67841   7.686   7.678   6.057
21945SOL    HW167842   7.620   7.614   6.029
21945SOL    HW267843   7.730   7.636   6.131
21946SOL     OW67844   2.771  10.707   6.906
21946SOL    HW167845   2.835  10.764   6.948
21946SOL    HW267846   2.816  10.674   6.828
21947SOL     OW67847   5.472   1.079   4.624
21947SOL    HW167848   5.477   1.071   4.528
21947SOL    HW267849   5.483   1.172   4.641
21948SOL     OW67850   7.180   1.206   3.418
21948SOL    HW167851   7.226   1.157   3.486
21948SOL    HW267852   7.233   1.285   3.406
21949SOL     OW67853   6.501   3.109  10.788
21949SOL    HW167854   6.448   3.123  10.710
21949SOL    HW267855   6.586   3.079  10.754
21950SOL     OW67856   7.241   8.746   3.210
21950SOL    HW167857   7.208   8.802   3.280
21950SOL    HW267858   7.276   8.669   3.255
21951SOL     OW67859   1.699  10.364   9.297
21951SOL    HW167860   1.657  10.278   9.293
21951SOL    HW267861   1.662  10.412   9.223
21952SOL     OW67862   4.534   0.237   2.565
21952SOL    HW167863   4.580   0.155   2.543
21952SOL    HW267864   4.577   0.303   2.511
21953SOL     OW67865   5.569   8.656   4.056
21953SOL    HW167866   5.614   8.696   3.982
21953SOL    HW267867   5.631   8.590   4.089
21954SOL     OW67868   6.593   6.645   3.713
21954SOL    HW167869   6.686   6.624   3.708
21954SOL    HW267870   6.588   6.716   3.777
21955SOL     OW67871   8.260   9.708   1.951
21955SOL    HW167872   8.353   9.729   1.955
21955SOL    HW267873   8.216   9.793   1.950
21956SOL     OW67874   2.860   0.364   0.465
21956SOL    HW167875   2.778   0.374   0.416
21956SOL    HW267876   2.847   0.416   0.544
21957SOL     OW67877   4.170   1.835   1.902
21957SOL    HW167878   4.096   1.862   1.848
21957SOL    HW267879   4.241   1.893   1.875
21958SOL     OW67880   7.905   9.530   2.435
21958SOL    HW167881   7.936   9.585   2.363
21958SOL    HW267882   7.881   9.592   2.504
21959SOL     OW67883   4.612   2.812   2.393
21959SOL    HW167884   4.703   2.802   2.365
21959SOL    HW267885   4.582   2.722   2.408
21960SOL     OW67886   2.516   2.372   9.372
21960SOL    HW167887   2.604   2.370   9.335
21960SOL    HW267888   2.480   2.285   9.354
21961SOL     OW67889   5.991   9.325   5.439
21961SOL    HW167890   5.944   9.354   5.517
21961SOL    HW267891   6.002   9.230   5.451
21962SOL     OW67892   5.013   1.109   5.810
21962SOL    HW167893   4.922   1.082   5.797
21962SOL    HW267894   5.060   1.026   5.823
21963SOL     OW67895  10.223  10.288   2.251
21963SOL    HW167896  10.215  10.318   2.341
21963SOL    HW267897  10.165  10.346   2.201
21964SOL     OW67898   1.506   7.394   9.580
21964SOL    HW167899   1.520   7.475   9.628
21964SOL    HW267900   1.550   7.408   9.496
21965SOL     OW67901   8.800   4.834   0.877
21965SOL    HW167902   8.876   4.845   0.934
21965SOL    HW267903   8.774   4.923   0.854
21966SOL     OW67904   5.372   1.506   1.629
21966SOL    HW167905   5.312   1.549   1.568
21966SOL    HW267906   5.417   1.578   1.673
21967SOL     OW67907   2.150   6.925   8.209
21967SOL    HW167908   2.217   6.912   8.276
21967SOL    HW267909   2.135   6.837   8.173
21968SOL     OW67910   5.751   0.717   2.593
21968SOL    HW167911   5.658   0.730   2.577
21968SOL    HW267912   5.755   0.638   2.647
21969SOL     OW67913   6.843   8.105  10.100
21969SOL    HW167914   6.906   8.061  10.157
21969SOL    HW267915   6.781   8.146  10.160
21970SOL     OW67916   9.547   3.734  10.085
21970SOL    HW167917   9.623   3.713  10.139
21970SOL    HW267918   9.473   3.729  10.145
21971SOL     OW67919   9.162   0.452   1.029
21971SOL    HW167920   9.182   0.515   1.098
21971SOL    HW267921   9.215   0.480   0.954
21972SOL     OW67922   0.712   7.990   3.625
21972SOL    HW167923   0.633   8.010   3.675
21972SOL    HW267924   0.732   8.070   3.576
21973SOL     OW67925   6.079   8.162  10.034
21973SOL    HW167926   6.140   8.172  10.107
21973SOL    HW267927   6.136   8.156   9.957
21974SOL     OW67928   9.892   1.340   0.514
21974SOL    HW167929   9.821   1.298   0.466
21974SOL    HW267930   9.871   1.433   0.511
21975SOL     OW67931   5.187  10.574   9.325
21975SOL    HW167932   5.097  10.594   9.349
21975SOL    HW267933   5.235  10.655   9.343
21976SOL     OW67934   1.444   0.499   6.568
21976SOL    HW167935   1.411   0.484   6.479
21976SOL    HW267936   1.514   0.563   6.557
21977SOL     OW67937   9.172   1.394   9.701
21977SOL    HW167938   9.241   1.372   9.638
21977SOL    HW267939   9.117   1.457   9.654
21978SOL     OW67940   3.887   6.079   9.880
21978SOL    HW167941   3.878   6.016   9.808
21978SOL    HW267942   3.819   6.053   9.942
21979SOL     OW67943   3.438   9.416   9.003
21979SOL    HW167944   3.501   9.393   8.935
21979SOL    HW267945   3.380   9.479   8.961
21980SOL     OW67946   8.409   3.249   2.040
21980SOL    HW167947   8.481   3.308   2.019
21980SOL    HW267948   8.401   3.193   1.963
21981SOL     OW67949   0.104   9.788   3.610
21981SOL    HW167950   0.035   9.729   3.641
21981SOL    HW267951   0.064   9.875   3.611
21982SOL     OW67952   4.965   2.085   3.715
21982SOL    HW167953   4.878   2.074   3.754
21982SOL    HW267954   4.957   2.047   3.627
21983SOL     OW67955   4.454   7.008  10.478
21983SOL    HW167956   4.512   7.071  10.520
21983SOL    HW267957   4.421   7.053  10.400
21984SOL     OW67958   4.383   5.017   0.083
21984SOL    HW167959   4.464   5.061   0.108
21984SOL    HW267960   4.342   5.075   0.020
21985SOL     OW67961  10.759   7.526   3.863
21985SOL    HW167962  10.780   7.435   3.840
21985SOL    HW267963  10.760   7.573   3.779
21986SOL     OW67964   0.557   8.500   0.908
21986SOL    HW167965   0.541   8.421   0.856
21986SOL    HW267966   0.573   8.467   0.996
21987SOL     OW67967   4.261   5.473   0.715
21987SOL    HW167968   4.197   5.464   0.785
21987SOL    HW267969   4.332   5.414   0.739
21988SOL     OW67970   8.413   1.338   2.336
21988SOL    HW167971   8.335   1.283   2.327
21988SOL    HW267972   8.380   1.427   2.333
21989SOL     OW67973   6.736   4.172   4.490
21989SOL    HW167974   6.723   4.103   4.424
21989SOL    HW267975   6.732   4.126   4.574
21990SOL     OW67976   7.102   3.669   7.993
21990SOL    HW167977   7.057   3.626   7.920
21990SOL    HW267978   7.182   3.704   7.954
21991SOL     OW67979   8.698   0.858   1.413
21991SOL    HW167980   8.629   0.852   1.479
21991SOL    HW267981   8.721   0.950   1.409
21992SOL     OW67982   3.754   8.889   6.095
21992SOL    HW167983   3.767   8.794   6.090
21992SOL    HW267984   3.715   8.911   6.010
21993SOL     OW67985   2.333   7.821   2.456
21993SOL    HW167986   2.372   7.826   2.368
21993SOL    HW267987   2.395   7.769   2.507
21994SOL     OW67988   9.664   3.827   1.262
21994SOL    HW167989   9.627   3.741   1.283
21994SOL    HW267990   9.732   3.841   1.328
21995SOL     OW67991  10.431   2.529   2.099
21995SOL    HW167992  10.485   2.601   2.067
21995SOL    HW267993  10.379   2.567   2.170
21996SOL     OW67994   4.979   5.763   7.383
21996SOL    HW167995   4.886   5.784   7.393
21996SOL    HW267996   4.998   5.782   7.291
21997SOL     OW67997   8.955   5.519   1.142
21997SOL    HW167998   8.990   5.481   1.061
21997SOL    HW267999   8.861   5.522   1.127
21998SOL     OW68000   2.596  10.340  11.041
21998SOL    HW168001   2.623  10.306  10.955
21998SOL    HW268002   2.621  10.271  11.103
21999SOL     OW68003   1.168   8.874   2.229
21999SOL    HW168004   1.080   8.908   2.246
21999SOL    HW268005   1.200   8.845   2.314
22000SOL     OW68006   4.625   8.036   2.947
22000SOL    HW168007   4.544   8.007   2.904
22000SOL    HW268008   4.638   7.973   3.018
22001SOL     OW68009   5.826   6.870   7.068
22001SOL    HW168010   5.733   6.892   7.074
22001SOL    HW268011   5.834   6.785   7.112
22002SOL     OW68012   9.815   5.625   4.542
22002SOL    HW168013   9.759   5.676   4.484
22002SOL    HW268014   9.765   5.546   4.561
22003SOL     OW68015   7.452   1.904   9.195
22003SOL    HW168016   7.439   1.920   9.101
22003SOL    HW268017   7.459   1.808   9.201
22004SOL     OW68018   8.777   3.180   2.016
22004SOL    HW168019   8.760   3.148   2.104
22004SOL    HW268020   8.750   3.108   1.959
22005SOL     OW68021   1.380   6.059   7.976
22005SOL    HW168022   1.320   6.122   7.936
22005SOL    HW268023   1.444   6.113   8.022
22006SOL     OW68024   6.621   8.542   5.606
22006SOL    HW168025   6.642   8.460   5.560
22006SOL    HW268026   6.547   8.578   5.557
22007SOL     OW68027   9.673   0.452   5.844
22007SOL    HW168028   9.626   0.429   5.763
22007SOL    HW268029   9.633   0.397   5.911
22008SOL     OW68030   7.520  10.320  10.926
22008SOL    HW168031   7.615  10.327  10.912
22008SOL    HW268032   7.488  10.410  10.922
22009SOL     OW68033   6.863   1.769   4.501
22009SOL    HW168034   6.881   1.840   4.440
22009SOL    HW268035   6.797   1.804   4.561
22010SOL     OW68036   9.974   1.554   1.776
22010SOL    HW168037   9.983   1.591   1.863
22010SOL    HW268038  10.064   1.533   1.749
22011SOL     OW68039   3.222   1.842   2.332
22011SOL    HW168040   3.152   1.780   2.354
22011SOL    HW268041   3.300   1.787   2.324
22012SOL     OW68042   4.759   7.562  10.364
22012SOL    HW168043   4.816   7.526  10.432
22012SOL    HW268044   4.671   7.536  10.390
22013SOL     OW68045   4.054   0.415   0.854
22013SOL    HW168046   4.115   0.467   0.906
22013SOL    HW268047   4.069   0.443   0.763
22014SOL     OW68048   5.098   7.493   7.212
22014SOL    HW168049   5.062   7.448   7.288
22014SOL    HW268050   5.124   7.422   7.153
22015SOL     OW68051   2.165  10.275   9.903
22015SOL    HW168052   2.070  10.285   9.894
22015SOL    HW268053   2.186  10.196   9.853
22016SOL     OW68054  10.039   0.218   4.635
22016SOL    HW168055  10.054   0.134   4.590
22016SOL    HW268056   9.952   0.245   4.606
22017SOL     OW68057   8.587   3.651   3.115
22017SOL    HW168058   8.666   3.646   3.061
22017SOL    HW268059   8.573   3.744   3.129
22018SOL     OW68060   2.457   1.065   8.937
22018SOL    HW168061   2.369   1.040   8.908
22018SOL    HW268062   2.506   0.982   8.939
22019SOL     OW68063   5.915   6.891   3.275
22019SOL    HW168064   5.853   6.820   3.257
22019SOL    HW268065   5.903   6.910   3.368
22020SOL     OW68066   4.153   6.044   3.192
22020SOL    HW168067   4.173   6.004   3.277
22020SOL    HW268068   4.197   6.129   3.194
22021SOL     OW68069   6.580  10.405   1.552
22021SOL    HW168070   6.561  10.449   1.469
22021SOL    HW268071   6.621  10.323   1.526
22022SOL     OW68072   1.907   8.196   3.780
22022SOL    HW168073   1.984   8.155   3.740
22022SOL    HW268074   1.868   8.127   3.834
22023SOL     OW68075   2.448   1.163   0.187
22023SOL    HW168076   2.400   1.080   0.195
22023SOL    HW268077   2.532   1.138   0.149
22024SOL     OW68078   2.048   1.967  10.095
22024SOL    HW168079   2.035   2.042  10.153
22024SOL    HW268080   2.143   1.958  10.089
22025SOL     OW68081   5.595   8.870   8.214
22025SOL    HW168082   5.521   8.896   8.268
22025SOL    HW268083   5.670   8.915   8.251
22026SOL     OW68084   6.536   4.845   3.505
22026SOL    HW168085   6.609   4.864   3.563
22026SOL    HW268086   6.567   4.771   3.452
22027SOL     OW68087   2.137   4.733   1.010
22027SOL    HW168088   2.111   4.821   0.986
22027SOL    HW268089   2.189   4.744   1.089
22028SOL     OW68090   7.064   3.418   4.143
22028SOL    HW168091   7.023   3.484   4.087
22028SOL    HW268092   7.154   3.449   4.155
22029SOL     OW68093   9.998  10.008  10.540
22029SOL    HW168094   9.970  10.071  10.606
22029SOL    HW268095   9.920   9.994  10.485
22030SOL     OW68096   0.881   5.435   7.647
22030SOL    HW168097   0.947   5.493   7.610
22030SOL    HW268098   0.823   5.492   7.696
22031SOL     OW68099  10.824   3.490   4.436
22031SOL    HW168100  10.748   3.432   4.428
22031SOL    HW268101  10.819   3.524   4.525
22032SOL     OW68102   6.489   7.918   0.376
22032SOL    HW168103   6.531   7.859   0.439
22032SOL    HW268104   6.398   7.888   0.372
22033SOL     OW68105   0.700   1.122   7.338
22033SOL    HW168106   0.646   1.201   7.333
22033SOL    HW268107   0.739   1.125   7.425
22034SOL     OW68108   7.632   2.666   4.956
22034SOL    HW168109   7.586   2.666   5.040
22034SOL    HW268110   7.586   2.732   4.904
22035SOL     OW68111   1.032   1.919   8.501
22035SOL    HW168112   0.980   1.986   8.456
22035SOL    HW268113   1.048   1.955   8.588
22036SOL     OW68114   9.168   2.104   5.837
22036SOL    HW168115   9.217   2.120   5.756
22036SOL    HW268116   9.111   2.180   5.846
22037SOL     OW68117   0.068   3.365   2.391
22037SOL    HW168118   0.115   3.394   2.469
22037SOL    HW268119  -0.025   3.373   2.414
22038SOL     OW68120   5.420   8.958   9.802
22038SOL    HW168121   5.389   9.015   9.732
22038SOL    HW268122   5.484   9.011   9.849
22039SOL     OW68123   3.579   5.494   1.489
22039SOL    HW168124   3.665   5.519   1.524
22039SOL    HW268125   3.566   5.551   1.413
22040SOL     OW68126   5.738   7.349   2.942
22040SOL    HW168127   5.751   7.443   2.952
22040SOL    HW268128   5.664   7.341   2.881
22041SOL     OW68129   5.627   0.733   4.546
22041SOL    HW168130   5.693   0.679   4.589
22041SOL    HW268131   5.676   0.805   4.507
22042SOL     OW68132   5.225   3.663   9.922
22042SOL    HW168133   5.298   3.603   9.903
22042SOL    HW268134   5.151   3.605   9.942
22043SOL     OW68135   6.339   0.171   1.798
22043SOL    HW168136   6.408   0.117   1.836
22043SOL    HW268137   6.355   0.166   1.703
22044SOL     OW68138   3.528  10.656   4.527
22044SOL    HW168139   3.434  10.666   4.514
22044SOL    HW268140   3.554  10.593   4.459
22045SOL     OW68141   3.555   2.061   2.828
22045SOL    HW168142   3.613   2.050   2.753
22045SOL    HW268143   3.467   2.064   2.790
22046SOL     OW68144   6.687  10.671   6.153
22046SOL    HW168145   6.711  10.682   6.061
22046SOL    HW268146   6.733  10.592   6.180
22047SOL     OW68147   4.005   7.018   9.459
22047SOL    HW168148   3.998   7.106   9.495
22047SOL    HW268149   3.963   7.024   9.373
22048SOL     OW68150   6.069   3.898   2.320
22048SOL    HW168151   6.135   3.956   2.357
22048SOL    HW268152   6.018   3.953   2.261
22049SOL     OW68153   0.213   0.274   5.340
22049SOL    HW168154   0.302   0.251   5.312
22049SOL    HW268155   0.223   0.351   5.395
22050SOL     OW68156   4.788   9.583   9.826
22050SOL    HW168157   4.784   9.488   9.842
22050SOL    HW268158   4.714   9.618   9.874
22051SOL     OW68159   9.362  10.534   0.043
22051SOL    HW168160   9.318  10.537  -0.042
22051SOL    HW268161   9.328  10.610   0.090
22052SOL     OW68162   4.352   0.869   2.826
22052SOL    HW168163   4.419   0.894   2.889
22052SOL    HW268164   4.376   0.780   2.800
22053SOL     OW68165   0.782   5.379   9.689
22053SOL    HW168166   0.827   5.351   9.609
22053SOL    HW268167   0.690   5.386   9.663
22054SOL     OW68168   6.551   9.166   0.633
22054SOL    HW168169   6.537   9.099   0.700
22054SOL    HW268170   6.491   9.141   0.562
22055SOL     OW68171   9.993   5.165   1.699
22055SOL    HW168172   9.991   5.103   1.625
22055SOL    HW268173  10.027   5.114   1.772
22056SOL     OW68174   1.412   8.423   2.400
22056SOL    HW168175   1.479   8.491   2.396
22056SOL    HW268176   1.333   8.469   2.428
22057SOL     OW68177   4.737   6.658   1.946
22057SOL    HW168178   4.777   6.718   2.008
22057SOL    HW268179   4.809   6.632   1.888
22058SOL     OW68180   6.110   9.051   2.587
22058SOL    HW168181   6.168   9.027   2.659
22058SOL    HW268182   6.162   9.035   2.508
22059SOL     OW68183   8.245   4.756   6.295
22059SOL    HW168184   8.310   4.711   6.240
22059SOL    HW268185   8.161   4.723   6.264
22060SOL     OW68186   8.893  10.954   6.374
22060SOL    HW168187   8.872  11.047   6.386
22060SOL    HW268188   8.890  10.917   6.462
22061SOL     OW68189   3.954   4.729   2.360
22061SOL    HW168190   4.015   4.787   2.315
22061SOL    HW268191   3.973   4.642   2.324
22062SOL     OW68192   8.005   5.658   3.623
22062SOL    HW168193   8.075   5.713   3.587
22062SOL    HW268194   8.026   5.650   3.716
22063SOL     OW68195   2.943   6.182   4.106
22063SOL    HW168196   3.007   6.227   4.161
22063SOL    HW268197   2.990   6.106   4.071
22064SOL     OW68198   6.248   5.276  10.130
22064SOL    HW168199   6.306   5.270  10.054
22064SOL    HW268200   6.183   5.341  10.105
22065SOL     OW68201   0.734   5.829   4.251
22065SOL    HW168202   0.678   5.789   4.318
22065SOL    HW268203   0.762   5.755   4.196
22066SOL     OW68204   9.076   5.728   7.076
22066SOL    HW168205   9.171   5.717   7.069
22066SOL    HW268206   9.042   5.683   6.999
22067SOL     OW68207   1.109   8.264  10.223
22067SOL    HW168208   1.204   8.257  10.230
22067SOL    HW268209   1.076   8.180  10.256
22068SOL     OW68210   8.450   0.983  10.041
22068SOL    HW168211   8.400   1.023   9.969
22068SOL    HW268212   8.530   0.951   9.999
22069SOL     OW68213   5.749   1.876  10.893
22069SOL    HW168214   5.712   1.894  10.979
22069SOL    HW268215   5.682   1.907  10.831
22070SOL     OW68216   7.932   8.769   4.047
22070SOL    HW168217   7.900   8.859   4.044
22070SOL    HW268218   7.871   8.720   3.992
22071SOL     OW68219   1.090   0.643   5.986
22071SOL    HW168220   1.010   0.672   5.941
22071SOL    HW268221   1.119   0.567   5.935
22072SOL     OW68222   1.797   3.473   4.489
22072SOL    HW168223   1.799   3.381   4.461
22072SOL    HW268224   1.719   3.479   4.544
22073SOL     OW68225   4.337   9.699   4.317
22073SOL    HW168226   4.342   9.777   4.262
22073SOL    HW268227   4.428   9.669   4.324
22074SOL     OW68228   6.418   0.051   5.704
22074SOL    HW168229   6.419   0.096   5.788
22074SOL    HW268230   6.475   0.104   5.648
22075SOL     OW68231   2.050   5.562   4.733
22075SOL    HW168232   2.091   5.592   4.814
22075SOL    HW268233   2.123   5.544   4.674
22076SOL     OW68234   8.515  10.743   6.572
22076SOL    HW168235   8.432  10.724   6.614
22076SOL    HW268236   8.574  10.674   6.603
22077SOL     OW68237   1.235   8.086   0.446
22077SOL    HW168238   1.234   8.016   0.380
22077SOL    HW268239   1.187   8.049   0.520
22078SOL     OW68240   8.973   3.462   0.849
22078SOL    HW168241   9.017   3.540   0.881
22078SOL    HW268242   8.941   3.418   0.928
22079SOL     OW68243   1.580   7.516   6.618
22079SOL    HW168244   1.490   7.539   6.597
22079SOL    HW268245   1.573   7.438   6.673
22080SOL     OW68246   3.720   6.872  10.097
22080SOL    HW168247   3.704   6.928  10.172
22080SOL    HW268248   3.684   6.787  10.122
22081SOL     OW68249   1.435  10.938   1.769
22081SOL    HW168250   1.488  10.863   1.796
22081SOL    HW268251   1.497  11.011   1.766
22082SOL     OW68252   9.143   2.328   7.495
22082SOL    HW168253   9.055   2.348   7.464
22082SOL    HW268254   9.155   2.235   7.475
22083SOL     OW68255   6.634   1.463   3.023
22083SOL    HW168256   6.559   1.504   2.980
22083SOL    HW268257   6.665   1.398   2.959
22084SOL     OW68258   4.599   1.301   2.470
22084SOL    HW168259   4.521   1.275   2.519
22084SOL    HW268260   4.565   1.348   2.394
22085SOL     OW68261   9.982   1.779   0.295
22085SOL    HW168262  10.062   1.789   0.346
22085SOL    HW268263   9.925   1.725   0.350
22086SOL     OW68264   0.937   7.791   2.525
22086SOL    HW168265   1.013   7.845   2.547
22086SOL    HW268266   0.901   7.763   2.609
22087SOL     OW68267   0.286   6.913   5.045
22087SOL    HW168268   0.322   6.828   5.071
22087SOL    HW268269   0.272   6.904   4.950
22088SOL     OW68270   8.884  10.907   6.645
22088SOL    HW168271   8.943  10.911   6.720
22088SOL    HW268272   8.842  10.821   6.652
22089SOL     OW68273   5.808   5.861  10.634
22089SOL    HW168274   5.849   5.786  10.591
22089SOL    HW268275   5.749   5.897  10.568
22090SOL     OW68276   7.777   6.433   1.113
22090SOL    HW168277   7.710   6.427   1.045
22090SOL    HW268278   7.777   6.346   1.154
22091SOL     OW68279   7.631  10.891   3.739
22091SOL    HW168280   7.551  10.868   3.692
22091SOL    HW268281   7.602  10.949   3.809
22092SOL     OW68282  10.348   0.303   2.044
22092SOL    HW168283  10.370   0.234   1.981
22092SOL    HW268284  10.360   0.261   2.129
22093SOL     OW68285   3.705   6.802   9.620
22093SOL    HW168286   3.717   6.869   9.687
22093SOL    HW268287   3.659   6.847   9.549
22094SOL     OW68288   6.765   9.210   3.273
22094SOL    HW168289   6.773   9.190   3.179
22094SOL    HW268290   6.795   9.130   3.317
22095SOL     OW68291   0.224   3.750   5.207
22095SOL    HW168292   0.291   3.718   5.267
22095SOL    HW268293   0.142   3.744   5.256
22096SOL     OW68294   9.589   6.322   4.600
22096SOL    HW168295   9.512   6.358   4.556
22096SOL    HW268296   9.660   6.382   4.579
22097SOL     OW68297   8.531   4.709   2.550
22097SOL    HW168298   8.567   4.728   2.463
22097SOL    HW268299   8.436   4.711   2.537
22098SOL     OW68300   7.341   7.117   3.690
22098SOL    HW168301   7.343   7.021   3.693
22098SOL    HW268302   7.351   7.144   3.781
22099SOL     OW68303   0.750  10.526  10.823
22099SOL    HW168304   0.749  10.584  10.747
22099SOL    HW268305   0.790  10.578  10.892
22100SOL     OW68306   9.594   8.121   4.117
22100SOL    HW168307   9.527   8.066   4.157
22100SOL    HW268308   9.621   8.181   4.186
22101SOL     OW68309  10.961   9.949   0.740
22101SOL    HW168310  10.889   9.989   0.692
22101SOL    HW268311  11.009  10.022   0.777
22102SOL     OW68312  10.109   7.123   5.645
22102SOL    HW168313  10.080   7.065   5.574
22102SOL    HW268314  10.108   7.210   5.606
22103SOL     OW68315   6.199   0.889   1.711
22103SOL    HW168316   6.143   0.910   1.785
22103SOL    HW268317   6.285   0.922   1.735
22104SOL     OW68318   6.954   5.424   2.299
22104SOL    HW168319   6.962   5.328   2.293
22104SOL    HW268320   6.887   5.446   2.234
22105SOL     OW68321   5.103  10.035   6.526
22105SOL    HW168322   5.033  10.044   6.591
22105SOL    HW268323   5.177   9.999   6.575
22106SOL     OW68324   7.156  10.880   5.426
22106SOL    HW168325   7.207  10.960   5.412
22106SOL    HW268326   7.209  10.811   5.386
22107SOL     OW68327   5.666   0.434   5.446
22107SOL    HW168328   5.659   0.460   5.538
22107SOL    HW268329   5.579   0.401   5.424
22108SOL     OW68330   8.280   6.395   0.817
22108SOL    HW168331   8.295   6.369   0.908
22108SOL    HW268332   8.368   6.400   0.779
22109SOL     OW68333   9.126  10.202   2.630
22109SOL    HW168334   9.196  10.228   2.690
22109SOL    HW268335   9.135  10.261   2.555
22110SOL     OW68336   8.548   9.012   4.477
22110SOL    HW168337   8.570   9.057   4.558
22110SOL    HW268338   8.458   9.038   4.458
22111SOL     OW68339   9.301   8.701   3.597
22111SOL    HW168340   9.314   8.703   3.692
22111SOL    HW268341   9.377   8.748   3.561
22112SOL     OW68342   0.784   9.999   5.194
22112SOL    HW168343   0.877   9.993   5.215
22112SOL    HW268344   0.769  10.091   5.175
22113SOL     OW68345   3.662   7.384  10.987
22113SOL    HW168346   3.674   7.385  11.082
22113SOL    HW268347   3.722   7.451  10.954
22114SOL     OW68348   7.580   3.306   1.315
22114SOL    HW168349   7.651   3.367   1.335
22114SOL    HW268350   7.520   3.356   1.260
22115SOL     OW68351  11.031   4.806   5.634
22115SOL    HW168352  10.992   4.724   5.602
22115SOL    HW268353  10.969   4.838   5.699
22116SOL     OW68354  10.399   1.214   0.929
22116SOL    HW168355  10.414   1.121   0.945
22116SOL    HW268356  10.446   1.258   0.999
22117SOL     OW68357   2.886   1.694   7.444
22117SOL    HW168358   2.938   1.736   7.375
22117SOL    HW268359   2.803   1.672   7.401
22118SOL     OW68360   8.628   8.168  10.616
22118SOL    HW168361   8.702   8.122  10.576
22118SOL    HW268362   8.656   8.259  10.621
22119SOL     OW68363   3.595   2.517   9.254
22119SOL    HW168364   3.529   2.580   9.225
22119SOL    HW268365   3.547   2.455   9.309
22120SOL     OW68366   2.444   0.798   2.739
22120SOL    HW168367   2.446   0.890   2.764
22120SOL    HW268368   2.511   0.756   2.793
22121SOL     OW68369   6.486   0.484   1.677
22121SOL    HW168370   6.505   0.407   1.731
22121SOL    HW268371   6.479   0.556   1.739
22122SOL     OW68372   1.098   2.359   1.084
22122SOL    HW168373   1.136   2.414   1.016
22122SOL    HW268374   1.047   2.293   1.036
22123SOL     OW68375   8.547   6.454   0.203
22123SOL    HW168376   8.590   6.533   0.235
22123SOL    HW268377   8.487   6.429   0.273
22124SOL     OW68378   7.335   0.778   4.730
22124SOL    HW168379   7.415   0.771   4.678
22124SOL    HW268380   7.365   0.779   4.821
22125SOL     OW68381   1.205   0.940   3.513
22125SOL    HW168382   1.289   0.980   3.535
22125SOL    HW268383   1.209   0.853   3.553
22126SOL     OW68384   5.379   1.238   6.182
22126SOL    HW168385   5.318   1.204   6.247
22126SOL    HW268386   5.360   1.187   6.103
22127SOL     OW68387   5.727   4.415   5.480
22127SOL    HW168388   5.798   4.422   5.544
22127SOL    HW268389   5.768   4.376   5.403
22128SOL     OW68390   5.393   9.326   2.749
22128SOL    HW168391   5.469   9.308   2.693
22128SOL    HW268392   5.318   9.307   2.693
22129SOL     OW68393   5.715  10.722   2.838
22129SOL    HW168394   5.681  10.800   2.793
22129SOL    HW268395   5.808  10.740   2.850
22130SOL     OW68396   3.215   4.368   4.130
22130SOL    HW168397   3.203   4.282   4.088
22130SOL    HW268398   3.230   4.347   4.222
22131SOL     OW68399   0.565   6.271   3.493
22131SOL    HW168400   0.579   6.259   3.587
22131SOL    HW268401   0.653   6.273   3.455
22132SOL     OW68402   6.880   3.399   4.502
22132SOL    HW168403   6.925   3.431   4.580
22132SOL    HW268404   6.886   3.303   4.508
22133SOL     OW68405   4.625   4.966   2.689
22133SOL    HW168406   4.638   4.884   2.640
22133SOL    HW268407   4.570   4.941   2.763
22134SOL     OW68408   9.498   6.686   9.903
22134SOL    HW168409   9.509   6.771   9.861
22134SOL    HW268410   9.438   6.702   9.976
22135SOL     OW68411   4.908   0.796   2.538
22135SOL    HW168412   4.918   0.736   2.464
22135SOL    HW268413   4.997   0.808   2.571
22136SOL     OW68414   5.313   3.889   5.555
22136SOL    HW168415   5.334   3.940   5.633
22136SOL    HW268416   5.396   3.883   5.507
22137SOL     OW68417   0.286   0.100   1.939
22137SOL    HW168418   0.344   0.155   1.886
22137SOL    HW268419   0.276   0.020   1.887
22138SOL     OW68420   8.703  10.568   0.120
22138SOL    HW168421   8.644  10.511   0.170
22138SOL    HW268422   8.698  10.534   0.031
22139SOL     OW68423   4.719   4.581  11.040
22139SOL    HW168424   4.663   4.622  11.105
22139SOL    HW268425   4.804   4.624  11.049
22140SOL     OW68426   5.638   3.190   2.201
22140SOL    HW168427   5.693   3.264   2.176
22140SOL    HW268428   5.550   3.213   2.170
22141SOL     OW68429   1.718   8.068   3.352
22141SOL    HW168430   1.656   8.127   3.394
22141SOL    HW268431   1.683   8.054   3.264
22142SOL     OW68432   2.503   4.107   9.020
22142SOL    HW168433   2.505   4.011   9.014
22142SOL    HW268434   2.476   4.125   9.110
22143SOL     OW68435   7.743   0.193   3.028
22143SOL    HW168436   7.823   0.140   3.028
22143SOL    HW268437   7.710   0.187   3.117
22144SOL     OW68438   6.225   5.284  10.398
22144SOL    HW168439   6.146   5.239  10.427
22144SOL    HW268440   6.231   5.263  10.304
22145SOL     OW68441   6.841   9.069   8.364
22145SOL    HW168442   6.911   9.037   8.421
22145SOL    HW268443   6.875   9.150   8.327
22146SOL     OW68444   1.399   1.466   2.551
22146SOL    HW168445   1.392   1.400   2.481
22146SOL    HW268446   1.410   1.414   2.631
22147SOL     OW68447   6.050   9.778  10.067
22147SOL    HW168448   5.984   9.740  10.008
22147SOL    HW268449   6.088   9.702  10.111
22148SOL     OW68450   6.337  10.561   5.127
22148SOL    HW168451   6.395  10.528   5.195
22148SOL    HW268452   6.389  10.556   5.046
22149SOL     OW68453   0.608   2.191   1.162
22149SOL    HW168454   0.699   2.181   1.191
22149SOL    HW268455   0.605   2.278   1.122
22150SOL     OW68456   4.133   4.881   9.583
22150SOL    HW168457   4.051   4.920   9.613
22150SOL    HW268458   4.109   4.792   9.555
22151SOL     OW68459   1.375   2.172   2.377
22151SOL    HW168460   1.319   2.240   2.414
22151SOL    HW268461   1.428   2.142   2.451
22152SOL     OW68462   1.567   4.828   0.785
22152SOL    HW168463   1.475   4.819   0.760
22152SOL    HW268464   1.593   4.739   0.811
22153SOL     OW68465   6.900   6.955   4.618
22153SOL    HW168466   6.853   7.028   4.578
22153SOL    HW268467   6.849   6.932   4.695
22154SOL     OW68468   4.010  10.275   2.557
22154SOL    HW168469   4.068  10.265   2.632
22154SOL    HW268470   4.064  10.249   2.482
22155SOL     OW68471   8.694   6.403   6.827
22155SOL    HW168472   8.606   6.370   6.812
22155SOL    HW268473   8.686   6.497   6.816
22156SOL     OW68474   2.544   2.759   0.939
22156SOL    HW168475   2.510   2.848   0.930
22156SOL    HW268476   2.472   2.703   0.910
22157SOL     OW68477   7.708   9.650   5.707
22157SOL    HW168478   7.645   9.644   5.779
22157SOL    HW268479   7.655   9.642   5.628
22158SOL     OW68480   7.751  10.318   4.054
22158SOL    HW168481   7.758  10.347   4.145
22158SOL    HW268482   7.709  10.232   4.059
22159SOL     OW68483  10.938   4.076   4.291
22159SOL    HW168484  10.945   4.077   4.195
22159SOL    HW268485  10.893   3.994   4.311
22160SOL     OW68486   2.604   5.246   4.985
22160SOL    HW168487   2.565   5.326   4.951
22160SOL    HW268488   2.587   5.249   5.079
22161SOL     OW68489   5.756   9.069   8.317
22161SOL    HW168490   5.843   9.067   8.277
22161SOL    HW268491   5.749   9.156   8.355
22162SOL     OW68492   9.834   8.937   2.914
22162SOL    HW168493   9.880   9.012   2.950
22162SOL    HW268494   9.768   8.974   2.855
22163SOL     OW68495   4.362   7.979   3.550
22163SOL    HW168496   4.329   7.954   3.636
22163SOL    HW268497   4.364   7.897   3.500
22164SOL     OW68498   2.458   7.891   4.924
22164SOL    HW168499   2.470   7.986   4.926
22164SOL    HW268500   2.364   7.878   4.914
22165SOL     OW68501   3.892   9.734   9.864
22165SOL    HW168502   3.935   9.649   9.871
22165SOL    HW268503   3.959   9.792   9.828
22166SOL     OW68504   2.677   0.339  10.761
22166SOL    HW168505   2.696   0.273  10.828
22166SOL    HW268506   2.582   0.344  10.759
22167SOL     OW68507   7.588   3.641   2.291
22167SOL    HW168508   7.615   3.576   2.356
22167SOL    HW268509   7.493   3.634   2.287
22168SOL     OW68510   0.763   7.735   3.531
22168SOL    HW168511   0.710   7.760   3.455
22168SOL    HW268512   0.764   7.812   3.587
22169SOL     OW68513   9.314   6.828   3.074
22169SOL    HW168514   9.322   6.805   3.166
22169SOL    HW268515   9.269   6.753   3.035
22170SOL     OW68516   3.651   8.538   1.069
22170SOL    HW168517   3.685   8.625   1.086
22170SOL    HW268518   3.568   8.534   1.117
22171SOL     OW68519   7.378   7.517   3.607
22171SOL    HW168520   7.350   7.430   3.635
22171SOL    HW268521   7.300   7.555   3.567
22172SOL     OW68522   9.635   2.334   2.913
22172SOL    HW168523   9.645   2.379   2.829
22172SOL    HW268524   9.560   2.276   2.900
22173SOL     OW68525   0.064  10.083   7.076
22173SOL    HW168526   0.144  10.107   7.029
22173SOL    HW268527  -0.003  10.144   7.044
22174SOL     OW68528   7.861  10.457   6.202
22174SOL    HW168529   7.945  10.442   6.245
22174SOL    HW268530   7.835  10.371   6.169
22175SOL     OW68531   7.385  10.748   5.309
22175SOL    HW168532   7.436  10.757   5.228
22175SOL    HW268533   7.428  10.806   5.371
22176SOL     OW68534   5.716   0.150   1.485
22176SOL    HW168535   5.763   0.198   1.553
22176SOL    HW268536   5.624   0.170   1.500
22177SOL     OW68537   3.926   0.156  10.677
22177SOL    HW168538   3.866   0.227  10.700
22177SOL    HW268539   3.891   0.079  10.723
22178SOL     OW68540   9.625   0.144   4.088
22178SOL    HW168541   9.606   0.087   4.013
22178SOL    HW268542   9.619   0.232   4.052
22179SOL     OW68543   3.074   6.378   1.003
22179SOL    HW168544   3.094   6.286   0.984
22179SOL    HW268545   3.076   6.421   0.917
22180SOL     OW68546   1.335   7.448   0.543
22180SOL    HW168547   1.349   7.487   0.456
22180SOL    HW268548   1.240   7.440   0.550
22181SOL     OW68549   1.068   1.630   2.003
22181SOL    HW168550   1.089   1.572   2.076
22181SOL    HW268551   1.138   1.695   2.004
22182SOL     OW68552  10.112  10.314   3.195
22182SOL    HW168553  10.129  10.248   3.262
22182SOL    HW268554  10.020  10.337   3.207
22183SOL     OW68555  10.076   6.901   5.446
22183SOL    HW168556  10.132   6.952   5.387
22183SOL    HW268557  10.079   6.812   5.410
22184SOL     OW68558   7.031  10.963   6.935
22184SOL    HW168559   7.101  11.015   6.973
22184SOL    HW268560   6.952  10.991   6.981
22185SOL     OW68561   0.623   6.233   4.693
22185SOL    HW168562   0.660   6.321   4.690
22185SOL    HW268563   0.689   6.178   4.651
22186SOL     OW68564   1.049   5.178   0.305
22186SOL    HW168565   1.013   5.266   0.314
22186SOL    HW268566   1.116   5.172   0.373
22187SOL     OW68567   2.060   9.290   0.191
22187SOL    HW168568   2.117   9.274   0.116
22187SOL    HW268569   2.090   9.227   0.257
22188SOL     OW68570   7.392   3.460  10.273
22188SOL    HW168571   7.424   3.371  10.257
22188SOL    HW268572   7.384   3.498  10.185
22189SOL     OW68573  10.569   5.892   2.750
22189SOL    HW168574  10.497   5.909   2.810
22189SOL    HW268575  10.647   5.919   2.798
22190SOL     OW68576   9.906   3.146   4.898
22190SOL    HW168577   9.961   3.074   4.929
22190SOL    HW268578   9.912   3.212   4.966
22191SOL     OW68579   1.782   0.024   4.561
22191SOL    HW168580   1.825   0.054   4.641
22191SOL    HW268581   1.698  -0.012   4.590
22192SOL     OW68582   7.733   1.880   2.337
22192SOL    HW168583   7.775   1.890   2.251
22192SOL    HW268584   7.649   1.839   2.318
22193SOL     OW68585   3.335  10.322   5.397
22193SOL    HW168586   3.272  10.393   5.404
22193SOL    HW268587   3.353  10.315   5.303
22194SOL     OW68588   6.951   7.594   5.819
22194SOL    HW168589   6.960   7.554   5.732
22194SOL    HW268590   6.882   7.543   5.862
22195SOL     OW68591   8.601   2.899   5.963
22195SOL    HW168592   8.644   2.984   5.966
22195SOL    HW268593   8.589   2.882   5.869
22196SOL     OW68594   9.483   7.361  10.161
22196SOL    HW168595   9.550   7.365  10.229
22196SOL    HW268596   9.452   7.451  10.152
22197SOL     OW68597   8.094   7.194   1.519
22197SOL    HW168598   8.080   7.236   1.603
22197SOL    HW268599   8.067   7.103   1.532
22198SOL     OW68600   5.968   3.264   3.481
22198SOL    HW168601   5.887   3.241   3.435
22198SOL    HW268602   6.038   3.235   3.422
22199SOL     OW68603  10.131   0.292   9.595
22199SOL    HW168604  10.067   0.344   9.547
22199SOL    HW268605  10.148   0.342   9.674
22200SOL     OW68606  10.537   1.409   1.320
22200SOL    HW168607  10.460   1.401   1.264
22200SOL    HW268608  10.587   1.480   1.280
22201SOL     OW68609   6.063   1.381   4.213
22201SOL    HW168610   6.116   1.332   4.276
22201SOL    HW268611   6.127   1.428   4.159
22202SOL     OW68612  10.180   0.761   7.819
22202SOL    HW168613  10.120   0.835   7.812
22202SOL    HW268614  10.190   0.747   7.913
22203SOL     OW68615   1.645   5.277   6.787
22203SOL    HW168616   1.564   5.245   6.826
22203SOL    HW268617   1.617   5.323   6.708
22204SOL     OW68618   5.305   1.466   9.087
22204SOL    HW168619   5.287   1.475   8.993
22204SOL    HW268620   5.227   1.424   9.123
22205SOL     OW68621   4.277   1.065   4.873
22205SOL    HW168622   4.217   1.101   4.807
22205SOL    HW268623   4.273   1.127   4.946
22206SOL     OW68624   7.450   1.856   4.215
22206SOL    HW168625   7.370   1.804   4.210
22206SOL    HW268626   7.447   1.896   4.301
22207SOL     OW68627   4.676   6.472   5.883
22207SOL    HW168628   4.719   6.499   5.964
22207SOL    HW268629   4.679   6.376   5.885
22208SOL     OW68630   2.768   3.290   5.432
22208SOL    HW168631   2.742   3.205   5.395
22208SOL    HW268632   2.803   3.268   5.518
22209SOL     OW68633   4.428  10.339   0.424
22209SOL    HW168634   4.363  10.274   0.396
22209SOL    HW268635   4.409  10.354   0.516
22210SOL     OW68636   5.729   8.772   3.888
22210SOL    HW168637   5.797   8.832   3.918
22210SOL    HW268638   5.775   8.707   3.835
22211SOL     OW68639   9.413   6.959   8.910
22211SOL    HW168640   9.392   6.886   8.968
22211SOL    HW268641   9.419   7.035   8.968
22212SOL     OW68642   9.101   2.541   1.176
22212SOL    HW168643   9.195   2.559   1.177
22212SOL    HW268644   9.079   2.533   1.083
22213SOL     OW68645   8.019   0.910   2.375
22213SOL    HW168646   8.044   0.824   2.410
22213SOL    HW268647   8.058   0.912   2.287
22214SOL     OW68648   1.164   3.144   1.294
22214SOL    HW168649   1.183   3.058   1.256
22214SOL    HW268650   1.192   3.137   1.385
22215SOL     OW68651   6.387  10.227   8.987
22215SOL    HW168652   6.411  10.212   8.895
22215SOL    HW268653   6.348  10.144   9.015
22216SOL     OW68654  10.202   7.102   3.427
22216SOL    HW168655  10.282   7.154   3.431
22216SOL    HW268656  10.206   7.045   3.504
22217SOL     OW68657  10.533   3.049   1.706
22217SOL    HW168658  10.448   3.093   1.704
22217SOL    HW268659  10.597   3.119   1.699
22218SOL     OW68660   6.203   3.894  10.701
22218SOL    HW168661   6.259   3.921  10.773
22218SOL    HW268662   6.264   3.869  10.631
22219SOL     OW68663   5.789   4.607   2.265
22219SOL    HW168664   5.730   4.671   2.303
22219SOL    HW268665   5.834   4.654   2.195
22220SOL     OW68666   6.938   1.395   5.055
22220SOL    HW168667   6.999   1.336   5.010
22220SOL    HW268668   6.966   1.483   5.030
22221SOL     OW68669   9.004   9.909  11.011
22221SOL    HW168670   9.011   9.932  11.103
22221SOL    HW268671   8.912   9.888  10.998
22222SOL     OW68672  10.645   9.909   3.137
22222SOL    HW168673  10.668   9.884   3.047
22222SOL    HW268674  10.708   9.863   3.192
22223SOL     OW68675   4.550   2.723   3.056
22223SOL    HW168676   4.476   2.707   3.114
22223SOL    HW268677   4.617   2.660   3.084
22224SOL     OW68678  10.821   7.475   2.615
22224SOL    HW168679  10.789   7.505   2.699
22224SOL    HW268680  10.900   7.526   2.599
22225SOL     OW68681   6.073   0.582  10.933
22225SOL    HW168682   6.129   0.620  10.865
22225SOL    HW268683   5.989   0.626  10.922
22226SOL     OW68684  10.656   8.952   3.118
22226SOL    HW168685  10.612   8.867   3.126
22226SOL    HW268686  10.618   8.991   3.039
22227SOL     OW68687   6.642   2.013   6.668
22227SOL    HW168688   6.612   2.093   6.624
22227SOL    HW268689   6.648   2.036   6.760
22228SOL     OW68690   4.789  10.224  10.179
22228SOL    HW168691   4.709  10.209  10.129
22228SOL    HW268692   4.859  10.211  10.115
22229SOL     OW68693   1.834   6.695  10.660
22229SOL    HW168694   1.841   6.765  10.724
22229SOL    HW268695   1.893   6.627  10.692
22230SOL     OW68696   4.893   2.784   7.660
22230SOL    HW168697   4.978   2.822   7.681
22230SOL    HW268698   4.852   2.848   7.602
22231SOL     OW68699   6.563  10.769   0.542
22231SOL    HW168700   6.548  10.698   0.604
22231SOL    HW268701   6.477  10.809   0.530
22232SOL     OW68702   3.099   2.301   4.018
22232SOL    HW168703   3.108   2.282   4.111
22232SOL    HW268704   3.059   2.222   3.981
22233SOL     OW68705   4.790   0.632   2.986
22233SOL    HW168706   4.755   0.721   2.982
22233SOL    HW268707   4.718   0.579   3.020
22234SOL     OW68708   0.178   2.506   7.374
22234SOL    HW168709   0.188   2.578   7.436
22234SOL    HW268710   0.253   2.449   7.391
22235SOL     OW68711   2.206   7.363   5.328
22235SOL    HW168712   2.126   7.319   5.356
22235SOL    HW268713   2.259   7.293   5.290
22236SOL     OW68714   7.479  10.900   6.059
22236SOL    HW168715   7.571  10.923   6.044
22236SOL    HW268716   7.481  10.807   6.081
22237SOL     OW68717   7.556   6.045   0.919
22237SOL    HW168718   7.489   5.977   0.929
22237SOL    HW268719   7.635   6.005   0.955
22238SOL     OW68720  10.044   5.346   0.395
22238SOL    HW168721  10.076   5.284   0.460
22238SOL    HW268722  10.121   5.397   0.370
22239SOL     OW68723   9.201  10.596  10.103
22239SOL    HW168724   9.155  10.677  10.081
22239SOL    HW268725   9.268  10.587  10.035
22240SOL     OW68726   1.298   2.824   5.728
22240SOL    HW168727   1.371   2.822   5.665
22240SOL    HW268728   1.298   2.736   5.767
22241SOL     OW68729   3.885   5.663   3.741
22241SOL    HW168730   3.794   5.649   3.715
22241SOL    HW268731   3.925   5.707   3.666
22242SOL     OW68732  10.482   4.322   9.832
22242SOL    HW168733  10.418   4.392   9.840
22242SOL    HW268734  10.453   4.256   9.895
22243SOL     OW68735   8.621   4.875   0.488
22243SOL    HW168736   8.643   4.868   0.395
22243SOL    HW268737   8.555   4.807   0.501
22244SOL     OW68738   1.396   4.242   0.085
22244SOL    HW168739   1.405   4.336   0.098
22244SOL    HW268740   1.302   4.227   0.078
22245SOL     OW68741   4.781   1.817   4.778
22245SOL    HW168742   4.836   1.859   4.712
22245SOL    HW268743   4.741   1.889   4.826
22246SOL     OW68744   9.684   8.296   0.342
22246SOL    HW168745   9.674   8.349   0.420
22246SOL    HW268746   9.671   8.206   0.372
22247SOL     OW68747   5.100   4.424  10.100
22247SOL    HW168748   5.105   4.503  10.046
22247SOL    HW268749   5.148   4.446  10.180
22248SOL     OW68750   6.969   1.949  10.373
22248SOL    HW168751   6.919   1.913  10.446
22248SOL    HW268752   6.905   1.959  10.302
22249SOL     OW68753   9.919   2.168   2.225
22249SOL    HW168754   9.870   2.170   2.307
22249SOL    HW268755   9.869   2.224   2.165
22250SOL     OW68756   4.034   5.402   4.480
22250SOL    HW168757   3.961   5.436   4.429
22250SOL    HW268758   4.003   5.318   4.513
22251SOL     OW68759   4.240   2.006   0.775
22251SOL    HW168760   4.329   2.027   0.746
22251SOL    HW268761   4.214   2.080   0.828
22252SOL     OW68762  11.009   0.701   2.744
22252SOL    HW168763  11.071   0.727   2.812
22252SOL    HW268764  10.994   0.607   2.759
22253SOL     OW68765   8.779   9.605   2.886
22253SOL    HW168766   8.720   9.675   2.858
22253SOL    HW268767   8.842   9.597   2.814
22254SOL     OW68768   3.341   2.126   3.362
22254SOL    HW168769   3.387   2.068   3.423
22254SOL    HW268770   3.383   2.211   3.373
22255SOL     OW68771  10.019   5.637   8.000
22255SOL    HW168772   9.938   5.668   8.039
22255SOL    HW268773  10.088   5.670   8.057
22256SOL     OW68774  11.002  10.212   4.960
22256SOL    HW168775  10.952  10.201   4.879
22256SOL    HW268776  11.033  10.124   4.981
22257SOL     OW68777   8.478   9.195   4.742
22257SOL    HW168778   8.511   9.285   4.742
22257SOL    HW268779   8.403   9.197   4.683
22258SOL     OW68780  10.106   1.803   5.217
22258SOL    HW168781  10.089   1.709   5.206
22258SOL    HW268782  10.019   1.843   5.224
22259SOL     OW68783   9.792   3.098   4.651
22259SOL    HW168784   9.841   3.111   4.732
22259SOL    HW268785   9.738   3.021   4.668
22260SOL     OW68786   7.386   1.764   1.734
22260SOL    HW168787   7.407   1.672   1.751
22260SOL    HW268788   7.309   1.781   1.788
22261SOL     OW68789   7.131   4.110   7.390
22261SOL    HW168790   7.047   4.079   7.423
22261SOL    HW268791   7.136   4.075   7.301
22262SOL     OW68792  10.874   0.905   4.578
22262SOL    HW168793  10.870   0.978   4.517
22262SOL    HW268794  10.806   0.845   4.548
22263SOL     OW68795   2.676   4.290   5.030
22263SOL    HW168796   2.608   4.223   5.028
22263SOL    HW268797   2.717   4.284   4.943
22264SOL     OW68798   4.437  10.045   3.689
22264SOL    HW168799   4.458  10.117   3.748
22264SOL    HW268800   4.401   9.977   3.746
22265SOL     OW68801   8.239   6.551   2.045
22265SOL    HW168802   8.159   6.569   1.995
22265SOL    HW268803   8.298   6.509   1.981
22266SOL     OW68804   2.987   5.107  11.060
22266SOL    HW168805   2.903   5.107  11.105
22266SOL    HW268806   3.051   5.085  11.128
22267SOL     OW68807   8.036   1.445   1.214
22267SOL    HW168808   8.113   1.392   1.194
22267SOL    HW268809   7.999   1.405   1.292
22268SOL     OW68810   5.489  10.715   8.522
22268SOL    HW168811   5.534  10.743   8.601
22268SOL    HW268812   5.553  10.660   8.476
22269SOL     OW68813   1.300  10.657   7.973
22269SOL    HW168814   1.342  10.740   7.952
22269SOL    HW268815   1.233  10.680   8.037
22270SOL     OW68816   7.834   7.119   3.689
22270SOL    HW168817   7.766   7.169   3.734
22270SOL    HW268818   7.813   7.129   3.596
22271SOL     OW68819   1.982   1.506   4.039
22271SOL    HW168820   1.995   1.421   3.996
22271SOL    HW268821   2.001   1.489   4.131
22272SOL     OW68822   3.895   1.805   5.793
22272SOL    HW168823   3.906   1.884   5.844
22272SOL    HW268824   3.971   1.803   5.735
22273SOL     OW68825  10.418   3.586   4.479
22273SOL    HW168826  10.491   3.644   4.499
22273SOL    HW268827  10.414   3.584   4.383
22274SOL     OW68828   6.118   3.770   3.087
22274SOL    HW168829   6.036   3.729   3.113
22274SOL    HW268830   6.185   3.707   3.114
22275SOL     OW68831   1.928   1.333   7.638
22275SOL    HW168832   1.911   1.332   7.543
22275SOL    HW268833   1.855   1.382   7.675
22276SOL     OW68834   8.279   7.841   1.032
22276SOL    HW168835   8.281   7.936   1.041
22276SOL    HW268836   8.192   7.816   1.063
22277SOL     OW68837   1.127   5.521   5.597
22277SOL    HW168838   1.173   5.594   5.637
22277SOL    HW268839   1.165   5.514   5.509
22278SOL     OW68840   9.748   8.298   9.320
22278SOL    HW168841   9.703   8.217   9.294
22278SOL    HW268842   9.742   8.354   9.242
22279SOL     OW68843   1.572   7.943   1.462
22279SOL    HW168844   1.498   7.900   1.420
22279SOL    HW268845   1.550   7.943   1.555
22280SOL     OW68846  10.550   4.286   4.959
22280SOL    HW168847  10.617   4.329   4.906
22280SOL    HW268848  10.599   4.226   5.015
22281SOL     OW68849   0.289   9.718   1.364
22281SOL    HW168850   0.229   9.791   1.350
22281SOL    HW268851   0.241   9.658   1.421
22282SOL     OW68852   7.141   8.731   7.597
22282SOL    HW168853   7.186   8.652   7.565
22282SOL    HW268854   7.079   8.752   7.527
22283SOL     OW68855   9.237   8.683   1.852
22283SOL    HW168856   9.219   8.661   1.943
22283SOL    HW268857   9.186   8.619   1.801
22284SOL     OW68858   5.716   3.173   3.276
22284SOL    HW168859   5.789   3.189   3.216
22284SOL    HW268860   5.667   3.255   3.277
22285SOL     OW68861   2.844   8.308   3.490
22285SOL    HW168862   2.917   8.329   3.548
22285SOL    HW268863   2.814   8.221   3.518
22286SOL     OW68864   8.338  10.893   8.805
22286SOL    HW168865   8.279  10.898   8.880
22286SOL    HW268866   8.286  10.854   8.735
22287SOL     OW68867   8.974   8.875   0.581
22287SOL    HW168868   8.978   8.961   0.540
22287SOL    HW268869   9.066   8.848   0.590
22288SOL     OW68870   3.414  10.508  10.881
22288SOL    HW168871   3.486  10.467  10.833
22288SOL    HW268872   3.455  10.582  10.926
22289SOL     OW68873  10.315   7.081   0.764
22289SOL    HW168874  10.247   7.026   0.802
22289SOL    HW268875  10.376   7.018   0.723
22290SOL     OW68876   0.106   6.967   4.653
22290SOL    HW168877   0.042   6.962   4.582
22290SOL    HW268878   0.102   7.057   4.683
22291SOL     OW68879  10.592   3.869   1.334
22291SOL    HW168880  10.548   3.848   1.251
22291SOL    HW268881  10.685   3.855   1.316
22292SOL     OW68882   5.426   3.171   4.471
22292SOL    HW168883   5.393   3.140   4.555
22292SOL    HW268884   5.357   3.229   4.438
22293SOL     OW68885   1.744   6.424  10.136
22293SOL    HW168886   1.823   6.393  10.092
22293SOL    HW268887   1.709   6.491  10.077
22294SOL     OW68888   7.394  10.045   9.411
22294SOL    HW168889   7.487  10.066   9.411
22294SOL    HW268890   7.350  10.129   9.400
22295SOL     OW68891   8.037   7.530   0.143
22295SOL    HW168892   8.000   7.548   0.230
22295SOL    HW268893   8.081   7.445   0.154
22296SOL     OW68894  10.471   0.856   7.046
22296SOL    HW168895  10.519   0.871   7.127
22296SOL    HW268896  10.436   0.767   7.055
22297SOL     OW68897   5.180   0.737   4.512
22297SOL    HW168898   5.102   0.791   4.504
22297SOL    HW268899   5.253   0.798   4.500
22298SOL     OW68900   3.589   0.630   4.933
22298SOL    HW168901   3.624   0.656   4.848
22298SOL    HW268902   3.496   0.615   4.917
22299SOL     OW68903   8.059   6.101   3.201
22299SOL    HW168904   7.975   6.088   3.158
22299SOL    HW268905   8.090   6.185   3.169
22300SOL     OW68906   5.607  10.287   4.737
22300SOL    HW168907   5.628  10.263   4.827
22300SOL    HW268908   5.526  10.336   4.743
22301SOL     OW68909  10.412   8.753   0.599
22301SOL    HW168910  10.382   8.839   0.628
22301SOL    HW268911  10.508   8.758   0.601
22302SOL     OW68912   6.257   4.572   1.633
22302SOL    HW168913   6.192   4.586   1.701
22302SOL    HW268914   6.314   4.649   1.637
22303SOL     OW68915   1.022   1.569   5.401
22303SOL    HW168916   0.987   1.525   5.323
22303SOL    HW268917   0.966   1.645   5.413
22304SOL     OW68918   8.391   4.188   0.351
22304SOL    HW168919   8.462   4.169   0.289
22304SOL    HW268920   8.328   4.239   0.300
22305SOL     OW68921   5.040   5.463   3.777
22305SOL    HW168922   5.045   5.375   3.814
22305SOL    HW268923   4.995   5.515   3.843
22306SOL     OW68924   5.316   7.424   6.143
22306SOL    HW168925   5.356   7.478   6.211
22306SOL    HW268926   5.223   7.447   6.146
22307SOL     OW68927   8.471   7.103   8.990
22307SOL    HW168928   8.416   7.025   8.980
22307SOL    HW268929   8.442   7.143   9.071
22308SOL     OW68930   2.871   0.021  10.144
22308SOL    HW168931   2.881  -0.018  10.057
22308SOL    HW268932   2.947   0.078  10.154
22309SOL     OW68933   8.429   6.342   1.049
22309SOL    HW168934   8.508   6.395   1.046
22309SOL    HW268935   8.456   6.261   1.092
22310SOL     OW68936   2.923   0.717   3.149
22310SOL    HW168937   2.835   0.702   3.184
22310SOL    HW268938   2.947   0.634   3.108
22311SOL     OW68939   8.216   3.853  10.238
22311SOL    HW168940   8.154   3.808  10.180
22311SOL    HW268941   8.169   3.861  10.321
22312SOL     OW68942   6.654   7.919   5.999
22312SOL    HW168943   6.716   7.856   6.036
22312SOL    HW268944   6.674   7.920   5.905
22313SOL     OW68945   7.154   4.388   3.297
22313SOL    HW168946   7.217   4.319   3.316
22313SOL    HW268947   7.071   4.355   3.332
22314SOL     OW68948   9.916   3.704   1.714
22314SOL    HW168949  10.003   3.726   1.747
22314SOL    HW268950   9.868   3.673   1.790
22315SOL     OW68951   8.419   3.445   7.252
22315SOL    HW168952   8.342   3.407   7.210
22315SOL    HW268953   8.384   3.498   7.323
22316SOL     OW68954   4.742   0.733   5.928
22316SOL    HW168955   4.791   0.711   5.848
22316SOL    HW268956   4.735   0.828   5.927
22317SOL     OW68957   9.658   1.384   7.176
22317SOL    HW168958   9.625   1.455   7.122
22317SOL    HW268959   9.647   1.414   7.266
22318SOL     OW68960   7.762   1.305  10.197
22318SOL    HW168961   7.668   1.299  10.180
22318SOL    HW268962   7.798   1.224  10.161
22319SOL     OW68963   3.984   3.621   4.963
22319SOL    HW168964   3.996   3.646   4.871
22319SOL    HW268965   3.890   3.608   4.972
22320SOL     OW68966   9.516   7.144   8.373
22320SOL    HW168967   9.526   7.062   8.421
22320SOL    HW268968   9.422   7.160   8.372
22321SOL     OW68969   4.387   7.445   6.234
22321SOL    HW168970   4.430   7.392   6.301
22321SOL    HW268971   4.453   7.509   6.207
22322SOL     OW68972   8.725   2.191   9.684
22322SOL    HW168973   8.662   2.238   9.629
22322SOL    HW268974   8.803   2.183   9.629
22323SOL     OW68975   9.397   0.874  10.826
22323SOL    HW168976   9.350   0.809  10.773
22323SOL    HW268977   9.329   0.919  10.876
22324SOL     OW68978   9.136   3.742   1.768
22324SOL    HW168979   9.159   3.835   1.763
22324SOL    HW268980   9.137   3.721   1.861
22325SOL     OW68981   7.116   8.887   3.939
22325SOL    HW168982   7.092   8.828   4.010
22325SOL    HW268983   7.075   8.848   3.861
22326SOL     OW68984  10.051   8.523  10.407
22326SOL    HW168985   9.982   8.567  10.357
22326SOL    HW268986  10.056   8.435  10.368
22327SOL     OW68987   8.101   1.404  10.521
22327SOL    HW168988   8.045   1.470  10.479
22327SOL    HW268989   8.129   1.347  10.449
22328SOL     OW68990   5.159   3.043   2.165
22328SOL    HW168991   5.136   3.010   2.078
22328SOL    HW268992   5.105   3.121   2.176
22329SOL     OW68993   4.937   8.703   1.243
22329SOL    HW168994   5.022   8.675   1.277
22329SOL    HW268995   4.879   8.629   1.261
22330SOL     OW68996   0.344   3.396   9.271
22330SOL    HW168997   0.332   3.460   9.201
22330SOL    HW268998   0.435   3.367   9.262
22331SOL     OW68999   5.762   3.940   9.554
22331SOL    HW169000   5.805   3.992   9.486
22331SOL    HW269001   5.823   3.941   9.627
22332SOL     OW69002   0.190   4.352   6.501
22332SOL    HW169003   0.253   4.418   6.474
22332SOL    HW269004   0.134   4.396   6.565
22333SOL     OW69005   3.944   2.094   6.572
22333SOL    HW169006   3.996   2.132   6.501
22333SOL    HW269007   3.975   2.003   6.578
22334SOL     OW69008   2.584   2.598   4.525
22334SOL    HW169009   2.674   2.590   4.557
22334SOL    HW269010   2.584   2.547   4.444
22335SOL     OW69011   9.124   1.869   5.709
22335SOL    HW169012   9.183   1.923   5.655
22335SOL    HW269013   9.109   1.920   5.788
22336SOL     OW69014   4.132   6.026   4.344
22336SOL    HW169015   4.107   5.934   4.354
22336SOL    HW269016   4.175   6.049   4.426
22337SOL     OW69017   2.245   5.947   1.413
22337SOL    HW169018   2.276   6.015   1.472
22337SOL    HW269019   2.323   5.896   1.392
22338SOL     OW69020   9.234   7.742   7.903
22338SOL    HW169021   9.192   7.740   7.817
22338SOL    HW269022   9.220   7.831   7.935
22339SOL     OW69023   6.147   1.089   2.127
22339SOL    HW169024   6.123   1.156   2.064
22339SOL    HW269025   6.175   1.137   2.204
22340SOL     OW69026   5.814   9.685   1.033
22340SOL    HW169027   5.775   9.679   0.945
22340SOL    HW269028   5.836   9.594   1.055
22341SOL     OW69029   8.004   7.993   4.002
22341SOL    HW169030   7.957   7.910   4.010
22341SOL    HW269031   8.084   7.980   4.053
22342SOL     OW69032   9.131   8.319   5.211
22342SOL    HW169033   9.188   8.380   5.258
22342SOL    HW269034   9.173   8.308   5.125
22343SOL     OW69035  10.192   1.274   9.869
22343SOL    HW169036  10.122   1.286   9.804
22343SOL    HW269037  10.148   1.280   9.953
22344SOL     OW69038   8.121   8.207   3.598
22344SOL    HW169039   8.161   8.197   3.684
22344SOL    HW269040   8.122   8.118   3.560
22345SOL     OW69041   4.133   7.651   3.691
22345SOL    HW169042   4.229   7.649   3.699
22345SOL    HW269043   4.108   7.559   3.678
22346SOL     OW69044   5.482  10.416   0.497
22346SOL    HW169045   5.573  10.391   0.515
22346SOL    HW269046   5.489  10.493   0.440
22347SOL     OW69047   7.968   0.995   5.387
22347SOL    HW169048   8.002   1.064   5.330
22347SOL    HW269049   8.038   0.979   5.450
22348SOL     OW69050   3.408   8.714   1.599
22348SOL    HW169051   3.450   8.628   1.596
22348SOL    HW269052   3.331   8.701   1.654
22349SOL     OW69053   4.191   1.712   0.389
22349SOL    HW169054   4.136   1.719   0.311
22349SOL    HW269055   4.130   1.717   0.462
22350SOL     OW69056   2.270   5.215   8.665
22350SOL    HW169057   2.315   5.200   8.748
22350SOL    HW269058   2.232   5.130   8.643
22351SOL     OW69059   7.340   0.289   5.224
22351SOL    HW169060   7.397   0.301   5.300
22351SOL    HW269061   7.251   0.299   5.258
22352SOL     OW69062   8.653   9.370   6.370
22352SOL    HW169063   8.707   9.408   6.300
22352SOL    HW269064   8.716   9.325   6.427
22353SOL     OW69065   7.949   1.690   2.880
22353SOL    HW169066   7.869   1.639   2.866
22353SOL    HW269067   8.000   1.639   2.943
22354SOL     OW69068   4.433   7.825   8.448
22354SOL    HW169069   4.443   7.909   8.403
22354SOL    HW269070   4.514   7.778   8.429
22355SOL     OW69071   0.462   6.553   5.586
22355SOL    HW169072   0.489   6.465   5.557
22355SOL    HW269073   0.508   6.566   5.669
22356SOL     OW69074  10.533   0.193   4.193
22356SOL    HW169075  10.457   0.198   4.250
22356SOL    HW269076  10.554   0.099   4.189
22357SOL     OW69077   6.912   9.016   0.551
22357SOL    HW169078   6.849   8.998   0.621
22357SOL    HW269079   6.895   8.948   0.485
22358SOL     OW69080   9.374   8.888   1.372
22358SOL    HW169081   9.322   8.961   1.340
22358SOL    HW269082   9.463   8.907   1.342
22359SOL     OW69083   3.884   4.118   9.437
22359SOL    HW169084   3.923   4.056   9.499
22359SOL    HW269085   3.801   4.143   9.477
22360SOL     OW69086   7.922   3.471   2.592
22360SOL    HW169087   7.996   3.532   2.593
22360SOL    HW269088   7.887   3.477   2.503
22361SOL     OW69089   9.303   8.827   2.563
22361SOL    HW169090   9.332   8.800   2.650
22361SOL    HW269091   9.304   8.922   2.565
22362SOL     OW69092  10.902   6.247   6.163
22362SOL    HW169093  10.818   6.249   6.208
22362SOL    HW269094  10.880   6.257   6.070
22363SOL     OW69095   6.693   1.225   6.410
22363SOL    HW169096   6.663   1.232   6.319
22363SOL    HW269097   6.613   1.230   6.462
22364SOL     OW69098   0.913   4.630   3.514
22364SOL    HW169099   0.941   4.593   3.430
22364SOL    HW269100   0.973   4.592   3.578
22365SOL     OW69101   1.306   0.025   5.286
22365SOL    HW169102   1.325  -0.069   5.285
22365SOL    HW269103   1.363   0.061   5.218
22366SOL     OW69104   4.848  10.042   6.994
22366SOL    HW169105   4.798  10.021   7.073
22366SOL    HW269106   4.909  10.110   7.021
22367SOL     OW69107   5.553  10.579   6.990
22367SOL    HW169108   5.598  10.527   7.056
22367SOL    HW269109   5.468  10.537   6.980
22368SOL     OW69110   8.746   9.358   7.955
22368SOL    HW169111   8.774   9.447   7.976
22368SOL    HW269112   8.824   9.317   7.916
22369SOL     OW69113   6.107   7.602   9.950
22369SOL    HW169114   6.094   7.638  10.037
22369SOL    HW269115   6.126   7.678   9.895
22370SOL     OW69116   6.557   5.078   9.625
22370SOL    HW169117   6.594   5.014   9.563
22370SOL    HW269118   6.617   5.076   9.699
22371SOL     OW69119   7.250   9.465  10.097
22371SOL    HW169120   7.206   9.544  10.065
22371SOL    HW269121   7.302   9.435  10.022
22372SOL     OW69122   5.407   2.766   4.378
22372SOL    HW169123   5.471   2.725   4.319
22372SOL    HW269124   5.390   2.699   4.445
22373SOL     OW69125   7.751   1.480   5.068
22373SOL    HW169126   7.660   1.453   5.083
22373SOL    HW269127   7.785   1.416   5.005
22374SOL     OW69128   5.270   8.083   1.073
22374SOL    HW169129   5.256   8.106   1.165
22374SOL    HW269130   5.285   7.988   1.074
22375SOL     OW69131   3.764   8.826   7.533
22375SOL    HW169132   3.853   8.828   7.498
22375SOL    HW269133   3.755   8.738   7.571
22376SOL     OW69134   4.407   3.624   3.997
22376SOL    HW169135   4.331   3.566   4.000
22376SOL    HW269136   4.463   3.593   4.068
22377SOL     OW69137   3.407   8.202   4.452
22377SOL    HW169138   3.488   8.221   4.499
22377SOL    HW269139   3.429   8.127   4.396
22378SOL     OW69140   5.393   4.901   3.360
22378SOL    HW169141   5.407   4.841   3.433
22378SOL    HW269142   5.301   4.888   3.336
22379SOL     OW69143   4.327  10.350  10.932
22379SOL    HW169144   4.365  10.423  10.883
22379SOL    HW269145   4.363  10.358  11.020
22380SOL     OW69146   6.245   8.337   4.498
22380SOL    HW169147   6.188   8.304   4.428
22380SOL    HW269148   6.312   8.269   4.507
22381SOL     OW69149  10.685   0.210  10.702
22381SOL    HW169150  10.760   0.266  10.681
22381SOL    HW269151  10.650   0.246  10.783
22382SOL     OW69152   7.100   9.264   6.843
22382SOL    HW169153   7.085   9.350   6.805
22382SOL    HW269154   7.149   9.281   6.923
22383SOL     OW69155   5.473   3.909   4.573
22383SOL    HW169156   5.566   3.895   4.589
22383SOL    HW269157   5.434   3.913   4.660
22384SOL     OW69158   4.254   9.994   8.557
22384SOL    HW169159   4.267   9.937   8.632
22384SOL    HW269160   4.342  10.006   8.520
22385SOL     OW69161  10.131   0.940   8.289
22385SOL    HW169162  10.080   0.969   8.213
22385SOL    HW269163  10.068   0.936   8.360
22386SOL     OW69164   7.697   3.799   8.783
22386SOL    HW169165   7.786   3.822   8.755
22386SOL    HW269166   7.654   3.882   8.800
22387SOL     OW69167   9.660  10.489  10.278
22387SOL    HW169168   9.585  10.542  10.251
22387SOL    HW269169   9.674  10.512  10.370
22388SOL     OW69170   8.305  11.102   6.221
22388SOL    HW169171   8.299  11.029   6.282
22388SOL    HW269172   8.389  11.090   6.176
22389SOL     OW69173   0.522   4.944   8.001
22389SOL    HW169174   0.509   5.004   7.928
22389SOL    HW269175   0.435   4.910   8.020
22390SOL     OW69176  10.865   2.575   5.837
22390SOL    HW169177  10.824   2.488   5.838
22390SOL    HW269178  10.923   2.575   5.913
22391SOL     OW69179   8.204  11.002   2.763
22391SOL    HW169180   8.205  10.974   2.671
22391SOL    HW269181   8.142  11.074   2.765
22392SOL     OW69182   9.623   1.693   4.820
22392SOL    HW169183   9.571   1.765   4.856
22392SOL    HW269184   9.612   1.621   4.883
22393SOL     OW69185   0.317   9.277   5.526
22393SOL    HW169186   0.283   9.282   5.436
22393SOL    HW269187   0.267   9.206   5.567
22394SOL     OW69188   7.827   6.353   5.874
22394SOL    HW169189   7.776   6.293   5.820
22394SOL    HW269190   7.893   6.388   5.814
22395SOL     OW69191   8.061   7.793  10.750
22395SOL    HW169192   8.013   7.722  10.706
22395SOL    HW269193   8.149   7.790  10.711
22396SOL     OW69194   6.756   1.051   3.358
22396SOL    HW169195   6.758   1.116   3.427
22396SOL    HW269196   6.733   0.969   3.402
22397SOL     OW69197   4.836   4.631   2.646
22397SOL    HW169198   4.814   4.538   2.644
22397SOL    HW269199   4.759   4.675   2.611
22398SOL     OW69200   0.515   4.744   3.921
22398SOL    HW169201   0.603   4.746   3.958
22398SOL    HW269202   0.528   4.717   3.830
22399SOL     OW69203   8.220   8.501   8.689
22399SOL    HW169204   8.265   8.418   8.706
22399SOL    HW269205   8.288   8.567   8.701
22400SOL     OW69206   0.315   6.993   8.437
22400SOL    HW169207   0.326   7.028   8.525
22400SOL    HW269208   0.305   6.898   8.450
22401SOL     OW69209   8.109  11.069   4.715
22401SOL    HW169210   8.137  11.093   4.626
22401SOL    HW269211   8.073  11.150   4.751
22402SOL     OW69212   8.967   3.038   3.776
22402SOL    HW169213   8.900   3.106   3.779
22402SOL    HW269214   9.038   3.076   3.723
22403SOL     OW69215   7.887   0.024   6.845
22403SOL    HW169216   7.801   0.006   6.883
22403SOL    HW269217   7.878  -0.003   6.753
22404SOL     OW69218  10.566   0.749   8.711
22404SOL    HW169219  10.476   0.722   8.728
22404SOL    HW269220  10.616   0.715   8.785
22405SOL     OW69221   0.527   8.877   6.582
22405SOL    HW169222   0.523   8.792   6.626
22405SOL    HW269223   0.436   8.903   6.571
22406SOL     OW69224  10.940   9.464   1.891
22406SOL    HW169225  10.969   9.381   1.852
22406SOL    HW269226  10.885   9.437   1.965
22407SOL     OW69227   1.254   4.521   6.327
22407SOL    HW169228   1.203   4.580   6.271
22407SOL    HW269229   1.281   4.575   6.401
22408SOL     OW69230   2.880   9.477   5.514
22408SOL    HW169231   2.880   9.446   5.423
22408SOL    HW269232   2.970   9.463   5.543
22409SOL     OW69233   6.193  10.231   7.463
22409SOL    HW169234   6.274  10.241   7.514
22409SOL    HW269235   6.214  10.269   7.377
22410SOL     OW69236   8.359   1.923   9.107
22410SOL    HW169237   8.449   1.916   9.076
22410SOL    HW269238   8.308   1.943   9.028
22411SOL     OW69239   6.095  10.865   7.369
22411SOL    HW169240   6.027  10.889   7.306
22411SOL    HW269241   6.162  10.821   7.316
22412SOL     OW69242   3.134  10.342   8.140
22412SOL    HW169243   3.120  10.378   8.052
22412SOL    HW269244   3.229  10.336   8.148
22413SOL     OW69245   9.399   9.467   4.999
22413SOL    HW169246   9.475   9.481   4.943
22413SOL    HW269247   9.348   9.547   4.990
22414SOL     OW69248   4.622   8.608   7.000
22414SOL    HW169249   4.532   8.636   6.983
22414SOL    HW269250   4.654   8.577   6.915
22415SOL     OW69251   0.925   1.300   2.527
22415SOL    HW169252   0.979   1.295   2.606
22415SOL    HW269253   0.883   1.386   2.532
22416SOL     OW69254   6.123   1.694   5.729
22416SOL    HW169255   6.071   1.692   5.648
22416SOL    HW269256   6.153   1.784   5.736
22417SOL     OW69257   2.963   5.684   5.354
22417SOL    HW169258   3.021   5.607   5.351
22417SOL    HW269259   3.012   5.749   5.404
22418SOL     OW69260   1.091   2.112  10.536
22418SOL    HW169261   1.007   2.076  10.506
22418SOL    HW269262   1.092   2.097  10.630
22419SOL     OW69263   7.519   2.587   7.457
22419SOL    HW169264   7.562   2.660   7.412
22419SOL    HW269265   7.463   2.628   7.523
22420SOL     OW69266   3.089   9.661   2.317
22420SOL    HW169267   3.179   9.690   2.303
22420SOL    HW269268   3.070   9.608   2.239
22421SOL     OW69269   2.801   2.770   5.178
22421SOL    HW169270   2.785   2.858   5.212
22421SOL    HW269271   2.714   2.734   5.162
22422SOL     OW69272   9.722   9.491   2.041
22422SOL    HW169273   9.675   9.416   2.004
22422SOL    HW269274   9.725   9.554   1.969
22423SOL     OW69275   4.404   6.393   1.929
22423SOL    HW169276   4.323   6.344   1.917
22423SOL    HW269277   4.456   6.374   1.850
22424SOL     OW69278   9.834   1.344   6.577
22424SOL    HW169279   9.835   1.421   6.520
22424SOL    HW269280   9.745   1.310   6.570
22425SOL     OW69281   9.310   2.612   4.867
22425SOL    HW169282   9.394   2.567   4.873
22425SOL    HW269283   9.273   2.606   4.955
22426SOL     OW69284   5.118   2.742   5.980
22426SOL    HW169285   5.143   2.662   5.933
22426SOL    HW269286   5.171   2.740   6.059
22427SOL     OW69287   7.476   9.972   6.778
22427SOL    HW169288   7.417   9.942   6.708
22427SOL    HW269289   7.507  10.057   6.748
22428SOL     OW69290   8.075   0.399   7.424
22428SOL    HW169291   8.020   0.475   7.407
22428SOL    HW269292   8.136   0.397   7.350
22429SOL     OW69293   0.034   0.820   4.263
22429SOL    HW169294   0.060   0.774   4.343
22429SOL    HW269295  -0.050   0.780   4.239
22430SOL     OW69296   4.925   6.548   9.097
22430SOL    HW169297   4.908   6.502   9.179
22430SOL    HW269298   5.010   6.590   9.110
22431SOL     OW69299   6.878   1.494   5.338
22431SOL    HW169300   6.905   1.464   5.251
22431SOL    HW269301   6.951   1.471   5.395
22432SOL     OW69302   2.066   5.576   4.288
22432SOL    HW169303   2.140   5.630   4.313
22432SOL    HW269304   2.100   5.486   4.291
22433SOL     OW69305   2.327   1.112   9.424
22433SOL    HW169306   2.317   1.133   9.517
22433SOL    HW269307   2.257   1.049   9.406
22434SOL     OW69308   7.076   2.684   8.173
22434SOL    HW169309   7.126   2.674   8.092
22434SOL    HW269310   7.100   2.608   8.226
22435SOL     OW69311   2.070   7.141   7.483
22435SOL    HW169312   1.975   7.144   7.486
22435SOL    HW269313   2.090   7.074   7.416
22436SOL     OW69314   7.477   1.266   7.280
22436SOL    HW169315   7.544   1.198   7.268
22436SOL    HW269316   7.479   1.285   7.373
22437SOL     OW69317   6.934   1.281   5.823
22437SOL    HW169318   6.900   1.218   5.759
22437SOL    HW269319   7.001   1.232   5.871
22438SOL     OW69320  10.200   6.845   1.188
22438SOL    HW169321  10.276   6.801   1.226
22438SOL    HW269322  10.237   6.914   1.133
22439SOL     OW69323   4.956   9.632   8.158
22439SOL    HW169324   4.929   9.567   8.092
22439SOL    HW269325   5.021   9.686   8.113
22440SOL     OW69326   8.874   4.811   0.595
22440SOL    HW169327   8.783   4.823   0.569
22440SOL    HW269328   8.871   4.799   0.690
22441SOL     OW69329   0.116   0.849   0.723
22441SOL    HW169330   0.058   0.791   0.773
22441SOL    HW269331   0.188   0.792   0.695
22442SOL     OW69332   8.922   7.535   8.811
22442SOL    HW169333   8.867   7.523   8.733
22442SOL    HW269334   8.916   7.628   8.831
22443SOL     OW69335   6.760   8.290   2.827
22443SOL    HW169336   6.716   8.273   2.743
22443SOL    HW269337   6.689   8.311   2.888
22444SOL     OW69338   4.244   8.576   6.436
22444SOL    HW169339   4.173   8.573   6.499
22444SOL    HW269340   4.215   8.639   6.370
22445SOL     OW69341   5.140   9.603   3.782
22445SOL    HW169342   5.094   9.522   3.803
22445SOL    HW269343   5.228   9.591   3.819
22446SOL     OW69344   6.274   4.439   0.680
22446SOL    HW169345   6.269   4.521   0.631
22446SOL    HW269346   6.197   4.440   0.736
22447SOL     OW69347   6.588   4.044   3.177
22447SOL    HW169348   6.567   4.082   3.262
22447SOL    HW269349   6.670   3.997   3.191
22448SOL     OW69350   4.774  10.453   0.586
22448SOL    HW169351   4.799  10.365   0.615
22448SOL    HW269352   4.696  10.474   0.637
22449SOL     OW69353   7.666   6.968  10.687
22449SOL    HW169354   7.587   7.008  10.652
22449SOL    HW269355   7.642   6.876  10.700
22450SOL     OW69356   4.979   9.999   7.408
22450SOL    HW169357   4.990   9.911   7.444
22450SOL    HW269358   5.026   9.997   7.324
22451SOL     OW69359   1.596   1.611   3.958
22451SOL    HW169360   1.572   1.561   4.036
22451SOL    HW269361   1.513   1.633   3.917
22452SOL     OW69362   5.605   6.587   5.873
22452SOL    HW169363   5.510   6.579   5.880
22452SOL    HW269364   5.635   6.499   5.848
22453SOL     OW69365  10.636   3.013   6.855
22453SOL    HW169366  10.583   2.940   6.822
22453SOL    HW269367  10.703   2.971   6.909
22454SOL     OW69368   0.956   0.649   1.739
22454SOL    HW169369   0.875   0.693   1.712
22454SOL    HW269370   1.004   0.715   1.788
22455SOL     OW69371   5.207   0.182   5.369
22455SOL    HW169372   5.192   0.145   5.456
22455SOL    HW269373   5.257   0.114   5.323
22456SOL     OW69374   0.480  10.010   4.310
22456SOL    HW169375   0.434   9.926   4.314
22456SOL    HW269376   0.572   9.986   4.299
22457SOL     OW69377   8.604   5.017   9.834
22457SOL    HW169378   8.687   5.021   9.881
22457SOL    HW269379   8.541   5.058   9.892
22458SOL     OW69380   4.061   6.393   3.354
22458SOL    HW169381   3.994   6.347   3.303
22458SOL    HW269382   4.017   6.417   3.435
22459SOL     OW69383   2.049   2.003   9.809
22459SOL    HW169384   2.110   2.055   9.861
22459SOL    HW269385   1.969   2.056   9.805
22460SOL     OW69386   4.695   1.062   5.782
22460SOL    HW169387   4.640   1.047   5.705
22460SOL    HW269388   4.635   1.094   5.849
22461SOL     OW69389   1.126   0.408  10.667
22461SOL    HW169390   1.132   0.382  10.575
22461SOL    HW269391   1.201   0.466  10.680
22462SOL     OW69392  10.158   1.284   4.621
22462SOL    HW169393  10.089   1.221   4.642
22462SOL    HW269394  10.177   1.328   4.704
22463SOL     OW69395   8.945   2.537  10.604
22463SOL    HW169396   8.850   2.532  10.599
22463SOL    HW269397   8.969   2.473  10.671
22464SOL     OW69398   5.264   9.583   0.975
22464SOL    HW169399   5.169   9.578   0.981
22464SOL    HW269400   5.291   9.628   1.055
22465SOL     OW69401  10.603   8.078   6.081
22465SOL    HW169402  10.676   8.101   6.023
22465SOL    HW269403  10.582   8.159   6.127
22466SOL     OW69404   9.899   3.028   3.881
22466SOL    HW169405   9.994   3.018   3.891
22466SOL    HW269406   9.876   2.964   3.813
22467SOL     OW69407  10.398   2.066   1.931
22467SOL    HW169408  10.423   2.115   1.853
22467SOL    HW269409  10.425   2.121   2.004
22468SOL     OW69410   5.645   8.249   3.092
22468SOL    HW169411   5.677   8.202   3.015
22468SOL    HW269412   5.718   8.305   3.118
22469SOL     OW69413   0.699   3.275   5.348
22469SOL    HW169414   0.777   3.290   5.294
22469SOL    HW269415   0.639   3.345   5.323
22470SOL     OW69416   1.234   6.133   4.260
22470SOL    HW169417   1.292   6.080   4.205
22470SOL    HW269418   1.283   6.146   4.341
22471SOL     OW69419   5.004   9.693   4.271
22471SOL    HW169420   5.094   9.668   4.292
22471SOL    HW269421   5.011   9.737   4.186
22472SOL     OW69422   2.272   8.230   3.698
22472SOL    HW169423   2.340   8.266   3.641
22472SOL    HW269424   2.190   8.258   3.658
22473SOL     OW69425   7.471   7.879   6.271
22473SOL    HW169426   7.526   7.916   6.202
22473SOL    HW269427   7.511   7.794   6.290
22474SOL     OW69428   8.794   3.368   5.270
22474SOL    HW169429   8.766   3.285   5.308
22474SOL    HW269430   8.840   3.342   5.190
22475SOL     OW69431   2.050   1.302   2.662
22475SOL    HW169432   2.007   1.312   2.577
22475SOL    HW269433   2.135   1.264   2.641
22476SOL     OW69434   5.058   7.207   9.359
22476SOL    HW169435   5.022   7.120   9.377
22476SOL    HW269436   5.129   7.190   9.297
22477SOL     OW69437   8.319   7.933   6.926
22477SOL    HW169438   8.295   7.880   7.002
22477SOL    HW269439   8.415   7.935   6.927
22478SOL     OW69440   0.529   3.526  10.538
22478SOL    HW169441   0.479   3.448  10.513
22478SOL    HW269442   0.507   3.540  10.630
22479SOL     OW69443   8.895   3.346   5.643
22479SOL    HW169444   8.918   3.288   5.570
22479SOL    HW269445   8.806   3.321   5.666
22480SOL     OW69446   7.587   3.885   3.601
22480SOL    HW169447   7.601   3.829   3.524
22480SOL    HW269448   7.492   3.890   3.609
22481SOL     OW69449   3.560   0.528   5.435
22481SOL    HW169450   3.523   0.544   5.348
22481SOL    HW269451   3.531   0.439   5.457
22482SOL     OW69452   6.031   2.546   1.391
22482SOL    HW169453   5.998   2.633   1.414
22482SOL    HW269454   6.126   2.558   1.381
22483SOL     OW69455   6.877  10.795   0.034
22483SOL    HW169456   6.785  10.792   0.009
22483SOL    HW269457   6.884  10.872   0.090
22484SOL     OW69458   9.144   8.992  10.032
22484SOL    HW169459   9.129   9.068   9.976
22484SOL    HW269460   9.211   9.020  10.094
22485SOL     OW69461   3.440   1.934   3.512
22485SOL    HW169462   3.366   1.917   3.570
22485SOL    HW269463   3.480   1.848   3.499
22486SOL     OW69464   6.245   2.064   4.949
22486SOL    HW169465   6.295   1.986   4.974
22486SOL    HW269466   6.257   2.125   5.021
22487SOL     OW69467   0.955   9.565   9.462
22487SOL    HW169468   0.908   9.569   9.378
22487SOL    HW269469   0.923   9.484   9.503
22488SOL     OW69470   5.488   7.325   4.888
22488SOL    HW169471   5.526   7.395   4.940
22488SOL    HW269472   5.407   7.303   4.933
22489SOL     OW69473   4.362   7.081   0.469
22489SOL    HW169474   4.319   7.001   0.500
22489SOL    HW269475   4.398   7.122   0.547
22490SOL     OW69476   6.106   8.486   6.056
22490SOL    HW169477   6.054   8.406   6.048
22490SOL    HW269478   6.082   8.537   5.979
22491SOL     OW69479   6.704   1.453   3.736
22491SOL    HW169480   6.624   1.493   3.770
22491SOL    HW269481   6.775   1.502   3.777
22492SOL     OW69482   7.869   9.267   8.247
22492SOL    HW169483   7.865   9.291   8.339
22492SOL    HW269484   7.866   9.350   8.200
22493SOL     OW69485   6.946   7.272   3.804
22493SOL    HW169486   6.999   7.308   3.732
22493SOL    HW269487   6.910   7.190   3.768
22494SOL     OW69488   8.788   1.114   5.414
22494SOL    HW169489   8.839   1.054   5.469
22494SOL    HW269490   8.747   1.174   5.475
22495SOL     OW69491   9.299   0.472   4.314
22495SOL    HW169492   9.217   0.498   4.272
22495SOL    HW269493   9.341   0.414   4.250
22496SOL     OW69494   4.522   9.199   6.507
22496SOL    HW169495   4.430   9.215   6.528
22496SOL    HW269496   4.568   9.276   6.539
22497SOL     OW69497  10.638   4.744   3.158
22497SOL    HW169498  10.641   4.662   3.207
22497SOL    HW269499  10.708   4.736   3.093
22498SOL     OW69500   3.054   0.949   6.486
22498SOL    HW169501   3.101   1.014   6.434
22498SOL    HW269502   2.992   1.000   6.537
22499SOL     OW69503   8.754   0.418   6.693
22499SOL    HW169504   8.782   0.382   6.608
22499SOL    HW269505   8.803   0.500   6.701
22500SOL     OW69506   2.436   5.445   6.466
22500SOL    HW169507   2.527   5.447   6.495
22500SOL    HW269508   2.407   5.536   6.472
22501SOL     OW69509   2.253  11.049  10.020
22501SOL    HW169510   2.227  10.972   9.969
22501SOL    HW269511   2.317  11.094   9.964
22502SOL     OW69512   2.663   0.537   6.324
22502SOL    HW169513   2.624   0.470   6.267
22502SOL    HW269514   2.747   0.557   6.282
22503SOL     OW69515   1.452   7.855   6.555
22503SOL    HW169516   1.423   7.930   6.503
22503SOL    HW269517   1.537   7.881   6.590
22504SOL     OW69518   7.772   9.701   3.069
22504SOL    HW169519   7.861   9.690   3.103
22504SOL    HW269520   7.718   9.642   3.122
22505SOL     OW69521   7.393   2.186   5.007
22505SOL    HW169522   7.397   2.236   4.925
22505SOL    HW269523   7.365   2.098   4.979
22506SOL     OW69524   9.407  10.364   9.780
22506SOL    HW169525   9.369  10.360   9.692
22506SOL    HW269526   9.435  10.274   9.798
22507SOL     OW69527   6.162   8.014   3.170
22507SOL    HW169528   6.121   8.093   3.204
22507SOL    HW269529   6.241   8.045   3.125
22508SOL     OW69530   6.036   9.755   4.470
22508SOL    HW169531   6.088   9.828   4.437
22508SOL    HW269532   6.098   9.704   4.522
22509SOL     OW69533   9.773   8.071   7.205
22509SOL    HW169534   9.751   8.157   7.239
22509SOL    HW269535   9.866   8.060   7.224
22510SOL     OW69536   3.562   1.095   4.922
22510SOL    HW169537   3.478   1.056   4.896
22510SOL    HW269538   3.605   1.026   4.973
22511SOL     OW69539   4.445   7.696  10.874
22511SOL    HW169540   4.426   7.695  10.968
22511SOL    HW269541   4.361   7.718  10.833
22512SOL     OW69542   6.490   3.666   9.884
22512SOL    HW169543   6.414   3.626   9.926
22512SOL    HW269544   6.564   3.614   9.915
22513SOL     OW69545   5.737   8.555   6.569
22513SOL    HW169546   5.664   8.616   6.573
22513SOL    HW269547   5.697   8.469   6.583
22514SOL     OW69548   1.754   9.856   8.731
22514SOL    HW169549   1.721   9.940   8.762
22514SOL    HW269550   1.692   9.791   8.765
22515SOL     OW69551  10.996   0.695   5.159
22515SOL    HW169552  11.024   0.756   5.091
22515SOL    HW269553  11.078   0.666   5.200
22516SOL     OW69554   4.182   2.663   3.319
22516SOL    HW169555   4.254   2.619   3.364
22516SOL    HW269556   4.157   2.602   3.249
22517SOL     OW69557   9.059   0.252   5.205
22517SOL    HW169558   9.071   0.237   5.111
22517SOL    HW269559   8.987   0.315   5.210
22518SOL     OW69560   6.222   1.523   8.019
22518SOL    HW169561   6.212   1.516   8.114
22518SOL    HW269562   6.270   1.604   8.006
22519SOL     OW69563   8.042   5.408   6.223
22519SOL    HW169564   7.966   5.386   6.169
22519SOL    HW269565   8.006   5.456   6.297
22520SOL     OW69566   9.595   1.993   4.925
22520SOL    HW169567   9.562   2.013   4.837
22520SOL    HW269568   9.688   2.014   4.921
22521SOL     OW69569   0.169   0.027  10.010
22521SOL    HW169570   0.233   0.021   9.939
22521SOL    HW269571   0.220   0.013  10.089
22522SOL     OW69572   6.998   2.694   3.737
22522SOL    HW169573   7.044   2.668   3.817
22522SOL    HW269574   6.914   2.649   3.742
22523SOL     OW69575   6.247   9.273   0.881
22523SOL    HW169576   6.282   9.315   0.802
22523SOL    HW269577   6.321   9.270   0.941
22524SOL     OW69578   5.454   2.551   5.971
22524SOL    HW169579   5.518   2.482   5.951
22524SOL    HW269580   5.481   2.625   5.917
22525SOL     OW69581   4.964   4.097   6.193
22525SOL    HW169582   5.010   4.169   6.151
22525SOL    HW269583   5.033   4.048   6.238
22526SOL     OW69584   6.223   6.994   3.644
22526SOL    HW169585   6.195   7.012   3.554
22526SOL    HW269586   6.202   7.074   3.692
22527SOL     OW69587   6.726   0.756   7.513
22527SOL    HW169588   6.809   0.709   7.521
22527SOL    HW269589   6.751   0.846   7.496
22528SOL     OW69590   3.685  10.268   6.410
22528SOL    HW169591   3.641  10.191   6.446
22528SOL    HW269592   3.616  10.332   6.398
22529SOL     OW69593   2.626   1.285   3.770
22529SOL    HW169594   2.558   1.350   3.757
22529SOL    HW269595   2.665   1.274   3.683
22530SOL     OW69596   0.281   9.166   3.990
22530SOL    HW169597   0.285   9.070   3.990
22530SOL    HW269598   0.220   9.187   4.060
22531SOL     OW69599   8.991   8.267   2.109
22531SOL    HW169600   9.062   8.272   2.045
22531SOL    HW269601   8.931   8.202   2.073
22532SOL     OW69602  10.689   0.647   3.944
22532SOL    HW169603  10.691   0.726   3.890
22532SOL    HW269604  10.652   0.580   3.886
22533SOL     OW69605   8.638   2.542   5.642
22533SOL    HW169606   8.646   2.459   5.594
22533SOL    HW269607   8.613   2.606   5.575
22534SOL     OW69608   8.948  10.540   0.725
22534SOL    HW169609   8.962  10.492   0.643
22534SOL    HW269610   9.036  10.564   0.754
22535SOL     OW69611   4.346   9.003   2.757
22535SOL    HW169612   4.409   9.051   2.810
22535SOL    HW269613   4.292   8.956   2.820
22536SOL     OW69614   1.218   2.001   9.930
22536SOL    HW169615   1.206   1.908   9.951
22536SOL    HW269616   1.305   2.022   9.963
22537SOL     OW69617   2.161   9.106   2.144
22537SOL    HW169618   2.239   9.115   2.199
22537SOL    HW269619   2.104   9.177   2.172
22538SOL     OW69620   3.138   7.730   9.718
22538SOL    HW169621   3.131   7.638   9.745
22538SOL    HW269622   3.228   7.754   9.739
22539SOL     OW69623   6.874   5.347   9.447
22539SOL    HW169624   6.900   5.331   9.537
22539SOL    HW269625   6.939   5.299   9.394
22540SOL     OW69626   1.275   0.369  10.165
22540SOL    HW169627   1.253   0.430  10.234
22540SOL    HW269628   1.371   0.368  10.162
22541SOL     OW69629   9.081   5.160   6.688
22541SOL    HW169630   9.035   5.085   6.726
22541SOL    HW269631   9.092   5.221   6.761
22542SOL     OW69632  10.738   3.538   6.027
22542SOL    HW169633  10.667   3.481   5.997
22542SOL    HW269634  10.729   3.539   6.122
22543SOL     OW69635   8.948  10.654   7.205
22543SOL    HW169636   8.869  10.640   7.257
22543SOL    HW269637   9.000  10.575   7.217
22544SOL     OW69638   7.753   4.608   6.945
22544SOL    HW169639   7.660   4.604   6.924
22544SOL    HW269640   7.759   4.673   7.014
22545SOL     OW69641   6.674  10.721  10.351
22545SOL    HW169642   6.678  10.634  10.391
22545SOL    HW269643   6.646  10.704  10.261
22546SOL     OW69644   9.319   8.202   6.389
22546SOL    HW169645   9.330   8.294   6.366
22546SOL    HW269646   9.395   8.181   6.444
22547SOL     OW69647   0.649   1.245   9.424
22547SOL    HW169648   0.678   1.276   9.338
22547SOL    HW269649   0.559   1.275   9.431
22548SOL     OW69650   9.584   9.823   1.341
22548SOL    HW169651   9.553   9.738   1.373
22548SOL    HW269652   9.535   9.888   1.391
22549SOL     OW69653   0.556   2.426   4.432
22549SOL    HW169654   0.604   2.451   4.511
22549SOL    HW269655   0.607   2.463   4.360
22550SOL     OW69656   4.725   4.627   7.429
22550SOL    HW169657   4.811   4.594   7.403
22550SOL    HW269658   4.743   4.687   7.501
22551SOL     OW69659   3.504   0.061   8.274
22551SOL    HW169660   3.467  -0.017   8.231
22551SOL    HW269661   3.597   0.058   8.250
22552SOL     OW69662   6.225   3.383   5.202
22552SOL    HW169663   6.291   3.339   5.256
22552SOL    HW269664   6.268   3.463   5.172
22553SOL     OW69665   5.702   0.843   2.900
22553SOL    HW169666   5.694   0.905   2.827
22553SOL    HW269667   5.618   0.797   2.902
22554SOL     OW69668   2.173   1.608   9.646
22554SOL    HW169669   2.268   1.611   9.633
22554SOL    HW269670   2.139   1.676   9.588
22555SOL     OW69671   0.745   4.384   1.577
22555SOL    HW169672   0.685   4.309   1.579
22555SOL    HW269673   0.787   4.383   1.663
22556SOL     OW69674   1.199   4.728   5.343
22556SOL    HW169675   1.227   4.642   5.311
22556SOL    HW269676   1.150   4.766   5.270
22557SOL     OW69677   3.445   2.045   8.231
22557SOL    HW169678   3.488   2.004   8.155
22557SOL    HW269679   3.434   2.136   8.205
22558SOL     OW69680   8.781   4.618  10.851
22558SOL    HW169681   8.729   4.591  10.775
22558SOL    HW269682   8.850   4.673  10.814
22559SOL     OW69683   4.266  10.694   9.936
22559SOL    HW169684   4.284  10.625   9.872
22559SOL    HW269685   4.346  10.747   9.937
22560SOL     OW69686   1.843   3.208   7.123
22560SOL    HW169687   1.919   3.165   7.163
22560SOL    HW269688   1.867   3.300   7.120
22561SOL     OW69689   2.339   3.472   7.301
22561SOL    HW169690   2.327   3.538   7.369
22561SOL    HW269691   2.292   3.506   7.225
22562SOL     OW69692   3.685   7.668   4.106
22562SOL    HW169693   3.751   7.735   4.122
22562SOL    HW269694   3.669   7.629   4.192
22563SOL     OW69695   9.008   7.232   8.507
22563SOL    HW169696   8.981   7.146   8.540
22563SOL    HW269697   8.927   7.283   8.503
22564SOL     OW69698  10.413   6.275   3.690
22564SOL    HW169699  10.405   6.346   3.753
22564SOL    HW269700  10.360   6.204   3.726
22565SOL     OW69701   1.839   2.818   5.177
22565SOL    HW169702   1.842   2.863   5.092
22565SOL    HW269703   1.859   2.886   5.241
22566SOL     OW69704   2.493   9.562   3.662
22566SOL    HW169705   2.555   9.601   3.723
22566SOL    HW269706   2.485   9.471   3.691
22567SOL     OW69707  10.793   9.426   3.640
22567SOL    HW169708  10.761   9.372   3.712
22567SOL    HW269709  10.763   9.380   3.561
22568SOL     OW69710   7.272   0.170   6.195
22568SOL    HW169711   7.326   0.160   6.116
22568SOL    HW269712   7.185   0.140   6.168
22569SOL     OW69713   9.683  10.421   6.486
22569SOL    HW169714   9.615  10.445   6.549
22569SOL    HW269715   9.759  10.475   6.510
22570SOL     OW69716   7.488   0.961   2.124
22570SOL    HW169717   7.524   0.983   2.038
22570SOL    HW269718   7.565   0.946   2.178
22571SOL     OW69719   5.722   2.768   7.528
22571SOL    HW169720   5.781   2.834   7.563
22571SOL    HW269721   5.725   2.781   7.433
22572SOL     OW69722   5.915  10.224   8.859
22572SOL    HW169723   5.879  10.158   8.799
22572SOL    HW269724   5.944  10.173   8.935
22573SOL     OW69725   0.722  10.632  10.289
22573SOL    HW169726   0.682  10.626  10.202
22573SOL    HW269727   0.662  10.686  10.340
22574SOL     OW69728   8.235   3.661   9.386
22574SOL    HW169729   8.207   3.733   9.329
22574SOL    HW269730   8.234   3.698   9.474
22575SOL     OW69731   2.463   1.422   4.066
22575SOL    HW169732   2.432   1.383   4.147
22575SOL    HW269733   2.478   1.347   4.008
22576SOL     OW69734   0.215   5.245  10.961
22576SOL    HW169735   0.231   5.166  10.909
22576SOL    HW269736   0.140   5.287  10.918
22577SOL     OW69737   2.642   2.406   5.832
22577SOL    HW169738   2.643   2.433   5.923
22577SOL    HW269739   2.564   2.446   5.795
22578SOL     OW69740  10.354   0.794   2.453
22578SOL    HW169741  10.383   0.854   2.522
22578SOL    HW269742  10.266   0.824   2.430
22579SOL     OW69743  10.995   2.522   4.315
22579SOL    HW169744  10.911   2.485   4.288
22579SOL    HW269745  10.990   2.527   4.410
22580SOL     OW69746   6.828  10.515   8.011
22580SOL    HW169747   6.862  10.586   7.956
22580SOL    HW269748   6.832  10.438   7.954
22581SOL     OW69749   3.185   9.833   8.717
22581SOL    HW169750   3.131   9.853   8.793
22581SOL    HW269751   3.126   9.844   8.642
22582SOL     OW69752   5.924   2.985   4.535
22582SOL    HW169753   5.930   3.058   4.473
22582SOL    HW269754   5.830   2.967   4.542
22583SOL     OW69755   5.173   0.368   9.943
22583SOL    HW169756   5.216   0.403   9.865
22583SOL    HW269757   5.211   0.281   9.954
22584SOL     OW69758   4.209   9.868   1.920
22584SOL    HW169759   4.123   9.881   1.960
22584SOL    HW269760   4.197   9.792   1.862
22585SOL     OW69761  10.673   0.951   0.853
22585SOL    HW169762  10.587   0.937   0.814
22585SOL    HW269763  10.725   0.991   0.783
22586SOL     OW69764   5.018   2.724   1.576
22586SOL    HW169765   4.994   2.751   1.487
22586SOL    HW269766   5.095   2.776   1.597
22587SOL     OW69767   5.144   0.336   6.459
22587SOL    HW169768   5.162   0.242   6.448
22587SOL    HW269769   5.055   0.347   6.426
22588SOL     OW69770   1.707   6.158   1.706
22588SOL    HW169771   1.700   6.063   1.690
22588SOL    HW269772   1.640   6.196   1.650
22589SOL     OW69773   7.360   6.919   6.625
22589SOL    HW169774   7.355   6.898   6.531
22589SOL    HW269775   7.309   6.999   6.634
22590SOL     OW69776   5.543   8.799   8.949
22590SOL    HW169777   5.481   8.759   8.888
22590SOL    HW269778   5.623   8.747   8.939
22591SOL     OW69779   5.942   9.131   0.541
22591SOL    HW169780   5.899   9.186   0.476
22591SOL    HW269781   5.913   9.166   0.625
22592SOL     OW69782   8.511   0.804   3.195
22592SOL    HW169783   8.423   0.782   3.165
22592SOL    HW269784   8.546   0.721   3.230
22593SOL     OW69785  10.923   0.749  10.968
22593SOL    HW169786  10.926   0.772  11.061
22593SOL    HW269787  11.013   0.761  10.937
22594SOL     OW69788   2.615  10.329   1.119
22594SOL    HW169789   2.640  10.326   1.211
22594SOL    HW269790   2.661  10.405   1.084
22595SOL     OW69791   1.530   4.959   2.656
22595SOL    HW169792   1.508   4.873   2.620
22595SOL    HW269793   1.509   4.952   2.749
22596SOL     OW69794   8.520   1.883   3.276
22596SOL    HW169795   8.536   1.804   3.224
22596SOL    HW269796   8.561   1.864   3.360
22597SOL     OW69797   4.371   1.780   2.964
22597SOL    HW169798   4.458   1.819   2.970
22597SOL    HW269799   4.317   1.847   2.923
22598SOL     OW69800   6.022   0.399   2.334
22598SOL    HW169801   5.962   0.473   2.327
22598SOL    HW269802   5.971   0.330   2.378
22599SOL     OW69803   1.084   6.560   5.457
22599SOL    HW169804   0.989   6.547   5.461
22599SOL    HW269805   1.096   6.652   5.478
22600SOL     OW69806   9.296   8.760   4.233
22600SOL    HW169807   9.376   8.756   4.180
22600SOL    HW269808   9.321   8.811   4.310
22601SOL     OW69809   3.513   5.026   8.539
22601SOL    HW169810   3.491   5.113   8.506
22601SOL    HW269811   3.582   5.041   8.603
22602SOL     OW69812   8.673   8.832   8.106
22602SOL    HW169813   8.735   8.859   8.173
22602SOL    HW269814   8.725   8.777   8.046
22603SOL     OW69815   8.220   5.862   2.249
22603SOL    HW169816   8.280   5.812   2.304
22603SOL    HW269817   8.271   5.881   2.170
22604SOL     OW69818   6.941   2.409   6.279
22604SOL    HW169819   6.906   2.497   6.264
22604SOL    HW269820   6.919   2.390   6.370
22605SOL     OW69821   9.265   0.074   1.906
22605SOL    HW169822   9.180   0.071   1.949
22605SOL    HW269823   9.297  -0.016   1.910
22606SOL     OW69824   8.280   5.139  10.691
22606SOL    HW169825   8.199   5.108  10.651
22606SOL    HW269826   8.323   5.189  10.622
22607SOL     OW69827   5.718   1.429   5.399
22607SOL    HW169828   5.810   1.408   5.417
22607SOL    HW269829   5.686   1.469   5.479
22608SOL     OW69830   5.681   9.257   1.721
22608SOL    HW169831   5.680   9.337   1.773
22608SOL    HW269832   5.640   9.191   1.777
22609SOL     OW69833   8.522   0.264   4.419
22609SOL    HW169834   8.566   0.343   4.388
22609SOL    HW269835   8.429   0.281   4.405
22610SOL     OW69836   5.704   0.531   8.149
22610SOL    HW169837   5.681   0.499   8.236
22610SOL    HW269838   5.737   0.453   8.103
22611SOL     OW69839   7.754   6.868   5.421
22611SOL    HW169840   7.840   6.879   5.462
22611SOL    HW269841   7.735   6.953   5.382
22612SOL     OW69842   7.039  10.641   7.782
22612SOL    HW169843   7.100  10.670   7.714
22612SOL    HW269844   7.061  10.549   7.795
22613SOL     OW69845   7.835   1.693   7.368
22613SOL    HW169846   7.825   1.768   7.425
22613SOL    HW269847   7.812   1.726   7.281
22614SOL     OW69848   7.263   3.910   8.284
22614SOL    HW169849   7.241   3.988   8.233
22614SOL    HW269850   7.241   3.932   8.374
22615SOL     OW69851  10.398   1.847   2.150
22615SOL    HW169852  10.385   1.898   2.070
22615SOL    HW269853  10.321   1.865   2.203
22616SOL     OW69854   5.096   6.410   0.044
22616SOL    HW169855   5.127   6.339   0.101
22616SOL    HW269856   5.078   6.482   0.104
22617SOL     OW69857   5.892   9.247   3.824
22617SOL    HW169858   5.927   9.331   3.794
22617SOL    HW269859   5.802   9.245   3.791
22618SOL     OW69860   0.913  10.727   9.650
22618SOL    HW169861   0.862  10.720   9.569
22618SOL    HW269862   0.893  10.814   9.683
22619SOL     OW69863   3.824  10.336   3.109
22619SOL    HW169864   3.874  10.360   3.187
22619SOL    HW269865   3.799  10.419   3.069
22620SOL     OW69866   2.053   0.014   1.218
22620SOL    HW169867   2.025   0.027   1.308
22620SOL    HW269868   2.148   0.002   1.224
22621SOL     OW69869   6.843  10.645   5.628
22621SOL    HW169870   6.784  10.574   5.604
22621SOL    HW269871   6.929  10.604   5.632
22622SOL     OW69872   0.135   2.185   4.010
22622SOL    HW169873   0.152   2.235   3.930
22622SOL    HW269874   0.042   2.200   4.028
22623SOL     OW69875  10.347   2.563   6.426
22623SOL    HW169876  10.322   2.648   6.460
22623SOL    HW269877  10.277   2.504   6.454
22624SOL     OW69878  11.080   4.490  10.720
22624SOL    HW169879  11.053   4.516  10.632
22624SOL    HW269880  11.000   4.456  10.760
22625SOL     OW69881   3.008   7.261   2.707
22625SOL    HW169882   3.100   7.259   2.679
22625SOL    HW269883   2.999   7.185   2.765
22626SOL     OW69884   5.878   1.806   0.826
22626SOL    HW169885   5.855   1.713   0.825
22626SOL    HW269886   5.915   1.821   0.913
22627SOL     OW69887   8.572   2.696   8.298
22627SOL    HW169888   8.577   2.772   8.355
22627SOL    HW269889   8.592   2.730   8.211
22628SOL     OW69890   3.995   1.827   6.573
22628SOL    HW169891   3.962   1.755   6.519
22628SOL    HW269892   4.069   1.789   6.620
22629SOL     OW69893   8.368   8.112   1.041
22629SOL    HW169894   8.341   8.193   1.083
22629SOL    HW269895   8.366   8.132   0.947
22630SOL     OW69896   6.501   8.630   9.358
22630SOL    HW169897   6.417   8.621   9.314
22630SOL    HW269898   6.506   8.553   9.415
22631SOL     OW69899   9.611   5.966   6.494
22631SOL    HW169900   9.640   5.903   6.427
22631SOL    HW269901   9.547   6.020   6.449
22632SOL     OW69902   3.816   0.996  10.800
22632SOL    HW169903   3.767   0.985  10.718
22632SOL    HW269904   3.908   0.982  10.775
22633SOL     OW69905   6.577   7.403   2.940
22633SOL    HW169906   6.641   7.474   2.936
22633SOL    HW269907   6.630   7.323   2.942
22634SOL     OW69908   9.226   7.724   2.581
22634SOL    HW169909   9.229   7.658   2.650
22634SOL    HW269910   9.302   7.779   2.597
22635SOL     OW69911   4.915   2.181   6.206
22635SOL    HW169912   4.918   2.190   6.301
22635SOL    HW269913   4.970   2.105   6.187
22636SOL     OW69914   3.018   1.057   9.878
22636SOL    HW169915   2.987   1.093   9.795
22636SOL    HW269916   2.992   0.965   9.874
22637SOL     OW69917   7.302  10.595   6.695
22637SOL    HW169918   7.208  10.594   6.712
22637SOL    HW269919   7.316  10.674   6.642
22638SOL     OW69920   2.769   6.346  11.070
22638SOL    HW169921   2.698   6.405  11.094
22638SOL    HW269922   2.844   6.375  11.122
22639SOL     OW69923   7.453  10.569   9.068
22639SOL    HW169924   7.506  10.511   9.013
22639SOL    HW269925   7.405  10.624   9.006
22640SOL     OW69926   8.541  10.905   1.266
22640SOL    HW169927   8.559  10.829   1.210
22640SOL    HW269928   8.488  10.963   1.211
22641SOL     OW69929   4.881   0.474   9.734
22641SOL    HW169930   4.792   0.508   9.730
22641SOL    HW269931   4.885   0.427   9.817
22642SOL     OW69932   2.079  10.344   5.789
22642SOL    HW169933   2.029  10.394   5.852
22642SOL    HW269934   2.036  10.360   5.705
22643SOL     OW69935   5.285   1.378   8.287
22643SOL    HW169936   5.216   1.320   8.320
22643SOL    HW269937   5.319   1.422   8.365
22644SOL     OW69938   7.764   3.404   1.617
22644SOL    HW169939   7.672   3.391   1.637
22644SOL    HW269940   7.808   3.402   1.702
22645SOL     OW69941   3.367   9.157   7.668
22645SOL    HW169942   3.355   9.085   7.730
22645SOL    HW269943   3.393   9.232   7.721
22646SOL     OW69944   5.177   6.915   8.402
22646SOL    HW169945   5.251   6.970   8.377
22646SOL    HW269946   5.217   6.842   8.450
22647SOL     OW69947  10.758   6.963   6.107
22647SOL    HW169948  10.757   6.911   6.026
22647SOL    HW269949  10.666   6.986   6.122
22648SOL     OW69950   1.317   1.560   6.181
22648SOL    HW169951   1.320   1.466   6.199
22648SOL    HW269952   1.229   1.587   6.207
22649SOL     OW69953   7.429  10.339   7.752
22649SOL    HW169954   7.436  10.379   7.665
22649SOL    HW269955   7.467  10.403   7.812
22650SOL     OW69956   4.764  10.375   5.067
22650SOL    HW169957   4.736  10.381   4.975
22650SOL    HW269958   4.856  10.350   5.062
22651SOL     OW69959   5.548  10.489   8.065
22651SOL    HW169960   5.509  10.415   8.111
22651SOL    HW269961   5.492  10.563   8.087
22652SOL     OW69962   4.243   6.307   8.912
22652SOL    HW169963   4.252   6.260   8.829
22652SOL    HW269964   4.326   6.353   8.923
22653SOL     OW69965   0.274   8.902   4.965
22653SOL    HW169966   0.209   8.911   4.895
22653SOL    HW269967   0.321   8.822   4.942
22654SOL     OW69968   4.717   5.503   1.699
22654SOL    HW169969   4.640   5.506   1.755
22654SOL    HW269970   4.787   5.470   1.756
22655SOL     OW69971   9.873   4.552   7.703
22655SOL    HW169972   9.855   4.479   7.762
22655SOL    HW269973   9.829   4.627   7.743
22656SOL     OW69974   4.274  10.370   3.196
22656SOL    HW169975   4.267  10.275   3.189
22656SOL    HW269976   4.201  10.396   3.252
22657SOL     OW69977   4.893   3.698   5.540
22657SOL    HW169978   4.835   3.773   5.545
22657SOL    HW269979   4.860   3.647   5.466
22658SOL     OW69980   2.557   6.895   7.223
22658SOL    HW169981   2.560   6.844   7.304
22658SOL    HW269982   2.493   6.963   7.239
22659SOL     OW69983   4.652  10.992   2.802
22659SOL    HW169984   4.608  11.053   2.861
22659SOL    HW269985   4.673  10.916   2.856
22660SOL     OW69986   2.046   1.424   8.057
22660SOL    HW169987   1.989   1.372   8.113
22660SOL    HW269988   2.026   1.393   7.968
22661SOL     OW69989   8.280   1.893   5.224
22661SOL    HW169990   8.286   1.803   5.258
22661SOL    HW269991   8.367   1.910   5.187
22662SOL     OW69992   5.839  10.199   7.686
22662SOL    HW169993   5.880  10.282   7.664
22662SOL    HW269994   5.812  10.208   7.777
22663SOL     OW69995   5.646   1.289   6.009
22663SOL    HW169996   5.637   1.199   6.040
22663SOL    HW269997   5.567   1.304   5.957
22664SOL     OW69998   6.845   1.380   2.187
22664SOL    HW169999   6.788   1.448   2.221
22664SOL    HW270000   6.829   1.380   2.092
22665SOL     OW70001   6.626   9.986   2.940
22665SOL    HW170002   6.713   9.952   2.959
22665SOL    HW270003   6.627  10.003   2.845
22666SOL     OW70004   8.566   2.607   1.237
22666SOL    HW170005   8.502   2.664   1.195
22666SOL    HW270006   8.514   2.546   1.289
22667SOL     OW70007   0.377  11.046   1.386
22667SOL    HW170008   0.459  11.094   1.384
22667SOL    HW270009   0.353  11.035   1.294
22668SOL     OW70010  10.556   8.976   5.966
22668SOL    HW170011  10.615   9.051   5.963
22668SOL    HW270012  10.479   9.003   5.916
22669SOL     OW70013   9.383   9.298   7.851
22669SOL    HW170014   9.466   9.255   7.872
22669SOL    HW270015   9.407   9.367   7.789
22670SOL     OW70016   9.432  10.970   7.486
22670SOL    HW170017   9.497  11.036   7.462
22670SOL    HW270018   9.348  11.016   7.482
22671SOL     OW70019   1.321   9.533   7.202
22671SOL    HW170020   1.380   9.592   7.248
22671SOL    HW270021   1.326   9.450   7.251
22672SOL     OW70022  10.029   5.201   8.764
22672SOL    HW170023  10.061   5.167   8.847
22672SOL    HW270024   9.934   5.198   8.772
22673SOL     OW70025   9.596   3.060   7.497
22673SOL    HW170026   9.550   3.141   7.478
22673SOL    HW270027   9.580   3.005   7.420
22674SOL     OW70028   3.337  10.295   3.258
22674SOL    HW170029   3.426  10.326   3.275
22674SOL    HW270030   3.299  10.360   3.199
22675SOL     OW70031   0.680   3.280   8.140
22675SOL    HW170032   0.771   3.254   8.127
22675SOL    HW270033   0.658   3.330   8.061
22676SOL     OW70034   1.085   0.342   7.145
22676SOL    HW170035   1.077   0.339   7.049
22676SOL    HW270036   1.136   0.421   7.162
22677SOL     OW70037   7.849   9.985   8.100
22677SOL    HW170038   7.937   9.959   8.071
22677SOL    HW270039   7.845  10.079   8.084
22678SOL     OW70040   5.102   3.881   6.518
22678SOL    HW170041   5.128   3.934   6.442
22678SOL    HW270042   5.152   3.799   6.508
22679SOL     OW70043  10.164   2.953   5.324
22679SOL    HW170044  10.204   2.955   5.237
22679SOL    HW270045  10.238   2.944   5.383
22680SOL     OW70046   9.320   6.131   7.467
22680SOL    HW170047   9.262   6.206   7.478
22680SOL    HW270048   9.350   6.109   7.555
22681SOL     OW70049   6.762   8.676   7.084
22681SOL    HW170050   6.749   8.591   7.041
22681SOL    HW270051   6.790   8.734   7.013
22682SOL     OW70052   3.709   6.568   5.788
22682SOL    HW170053   3.758   6.624   5.728
22682SOL    HW270054   3.671   6.628   5.851
22683SOL     OW70055   2.740   1.417   6.566
22683SOL    HW170056   2.797   1.491   6.586
22683SOL    HW270057   2.776   1.381   6.485
22684SOL     OW70058  10.832  10.311   6.808
22684SOL    HW170059  10.780  10.371   6.755
22684SOL    HW270060  10.907  10.362   6.837
22685SOL     OW70061   2.108  10.100   4.760
22685SOL    HW170062   2.104  10.123   4.852
22685SOL    HW270063   2.091  10.182   4.713
22686SOL     OW70064   6.525  10.929  10.060
22686SOL    HW170065   6.584  10.866  10.018
22686SOL    HW270066   6.528  11.006  10.003
22687SOL     OW70067   3.998   9.844   5.158
22687SOL    HW170068   3.904   9.830   5.171
22687SOL    HW270069   4.024   9.773   5.098
22688SOL     OW70070   3.082   1.996   9.336
22688SOL    HW170071   3.111   2.077   9.377
22688SOL    HW270072   3.143   1.929   9.368
22689SOL     OW70073   0.477   8.331   4.138
22689SOL    HW170074   0.520   8.371   4.213
22689SOL    HW270075   0.463   8.240   4.164
22690SOL     OW70076   0.703   9.194  10.837
22690SOL    HW170077   0.661   9.137  10.772
22690SOL    HW270078   0.634   9.213  10.900
22691SOL     OW70079   2.385   0.112   2.117
22691SOL    HW170080   2.399   0.202   2.089
22691SOL    HW270081   2.425   0.059   2.048
22692SOL     OW70082   0.870   1.646   2.890
22692SOL    HW170083   0.871   1.739   2.868
22692SOL    HW270084   0.855   1.644   2.984
22693SOL     OW70085   4.962   4.125   2.520
22693SOL    HW170086   5.057   4.117   2.531
22693SOL    HW270087   4.952   4.186   2.447
22694SOL     OW70088   7.943   1.693   4.402
22694SOL    HW170089   7.976   1.767   4.452
22694SOL    HW270090   8.002   1.621   4.424
22695SOL     OW70091   9.908   8.917  10.516
22695SOL    HW170092   9.902   8.901  10.610
22695SOL    HW270093   9.853   8.849  10.477
22696SOL     OW70094   8.580   3.242   7.347
22696SOL    HW170095   8.660   3.293   7.360
22696SOL    HW270096   8.515   3.305   7.318
22697SOL     OW70097   0.147   9.714   1.731
22697SOL    HW170098   0.128   9.672   1.815
22697SOL    HW270099   0.223   9.769   1.748
22698SOL     OW70100   8.748   5.083   9.137
22698SOL    HW170101   8.799   5.044   9.065
22698SOL    HW270102   8.734   5.174   9.110
22699SOL     OW70103   3.108   6.002   7.572
22699SOL    HW170104   3.175   6.024   7.637
22699SOL    HW270105   3.157   5.967   7.497
22700SOL     OW70106   9.454  10.070   1.019
22700SOL    HW170107   9.541  10.069   1.059
22700SOL    HW270108   9.423   9.979   1.026
22701SOL     OW70109   8.001   5.261   9.851
22701SOL    HW170110   8.058   5.305   9.914
22701SOL    HW270111   8.028   5.169   9.854
22702SOL     OW70112   5.067   3.148   9.251
22702SOL    HW170113   5.069   3.222   9.310
22702SOL    HW270114   4.975   3.139   9.226
22703SOL     OW70115   6.296  10.952   2.962
22703SOL    HW170116   6.357  10.882   2.986
22703SOL    HW270117   6.314  10.969   2.869
22704SOL     OW70118   5.604   3.871   0.572
22704SOL    HW170119   5.633   3.961   0.587
22704SOL    HW270120   5.536   3.878   0.505
22705SOL     OW70121   5.186   9.719   7.979
22705SOL    HW170122   5.278   9.691   7.977
22705SOL    HW270123   5.189   9.814   7.971
22706SOL     OW70124  10.639   3.731   4.608
22706SOL    HW170125  10.572   3.752   4.673
22706SOL    HW270126  10.720   3.768   4.643
22707SOL     OW70127   0.684   0.160   9.304
22707SOL    HW170128   0.617   0.104   9.264
22707SOL    HW270129   0.751   0.099   9.335
22708SOL     OW70130  10.997   6.226   6.998
22708SOL    HW170131  10.983   6.315   6.966
22708SOL    HW270132  10.975   6.170   6.923
22709SOL     OW70133   3.979  10.631   7.936
22709SOL    HW170134   4.073  10.633   7.917
22709SOL    HW270135   3.938  10.630   7.849
22710SOL     OW70136   6.277   1.084   5.046
22710SOL    HW170137   6.259   1.177   5.060
22710SOL    HW270138   6.339   1.060   5.115
22711SOL     OW70139   0.584   4.987   6.805
22711SOL    HW170140   0.591   4.898   6.840
22711SOL    HW270141   0.497   5.016   6.832
22712SOL     OW70142   9.156   9.219   3.367
22712SOL    HW170143   9.167   9.130   3.401
22712SOL    HW270144   9.137   9.207   3.274
22713SOL     OW70145   3.678   9.796  10.368
22713SOL    HW170146   3.659   9.709  10.402
22713SOL    HW270147   3.739   9.780  10.296
22714SOL     OW70148   4.992   7.019   1.465
22714SOL    HW170149   5.086   7.036   1.463
22714SOL    HW270150   4.980   6.955   1.535
22715SOL     OW70151   0.363   6.787   4.168
22715SOL    HW170152   0.448   6.803   4.209
22715SOL    HW270153   0.358   6.691   4.161
22716SOL     OW70154   5.031   8.911   7.839
22716SOL    HW170155   5.122   8.938   7.825
22716SOL    HW270156   5.038   8.820   7.869
22717SOL     OW70157   6.756   8.907   1.016
22717SOL    HW170158   6.700   8.942   1.085
22717SOL    HW270159   6.809   8.840   1.059
22718SOL     OW70160  10.250   2.167   4.121
22718SOL    HW170161  10.308   2.234   4.085
22718SOL    HW270162  10.281   2.085   4.082
22719SOL     OW70163   8.530   1.009   8.286
22719SOL    HW170164   8.560   0.970   8.204
22719SOL    HW270165   8.598   1.072   8.309
22720SOL     OW70166   5.874   4.954   9.935
22720SOL    HW170167   5.845   4.915  10.017
22720SOL    HW270168   5.931   5.026   9.960
22721SOL     OW70169   6.004   5.518   4.856
22721SOL    HW170170   6.011   5.612   4.841
22721SOL    HW270171   6.059   5.501   4.932
22722SOL     OW70172   7.435   0.456   8.443
22722SOL    HW170173   7.457   0.414   8.526
22722SOL    HW270174   7.342   0.475   8.450
22723SOL     OW70175   8.935   9.849   4.044
22723SOL    HW170176   8.920   9.766   3.999
22723SOL    HW270177   8.867   9.853   4.111
22724SOL     OW70178   4.059   0.876   0.084
22724SOL    HW170179   4.077   0.865  -0.009
22724SOL    HW270180   3.985   0.936   0.088
22725SOL     OW70181   8.958   9.986   9.910
22725SOL    HW170182   9.026  10.046   9.879
22725SOL    HW270183   8.958   9.996  10.005
22726SOL     OW70184   3.034   2.667   5.308
22726SOL    HW170185   2.985   2.683   5.227
22726SOL    HW270186   3.080   2.584   5.292
22727SOL     OW70187   2.606  10.573   9.362
22727SOL    HW170188   2.624  10.481   9.342
22727SOL    HW270189   2.532  10.570   9.423
22728SOL     OW70190   7.708   0.646   8.035
22728SOL    HW170191   7.655   0.685   7.966
22728SOL    HW270192   7.765   0.716   8.065
22729SOL     OW70193   3.763   5.405   5.784
22729SOL    HW170194   3.840   5.415   5.728
22729SOL    HW270195   3.718   5.489   5.779
22730SOL     OW70196   9.799   2.198   4.885
22730SOL    HW170197   9.736   2.266   4.907
22730SOL    HW270198   9.873   2.214   4.943
22731SOL     OW70199   0.529   5.491   9.450
22731SOL    HW170200   0.443   5.515   9.417
22731SOL    HW270201   0.512   5.419   9.511
22732SOL     OW70202   1.737   8.279   2.346
22732SOL    HW170203   1.693   8.345   2.293
22732SOL    HW270204   1.681   8.201   2.339
22733SOL     OW70205   9.062   3.553   6.941
22733SOL    HW170206   9.041   3.641   6.910
22733SOL    HW270207   9.158   3.552   6.947
22734SOL     OW70208   4.027   0.395  10.862
22734SOL    HW170209   3.955   0.372  10.920
22734SOL    HW270210   3.993   0.466  10.808
22735SOL     OW70211   3.120   7.286  10.977
22735SOL    HW170212   3.211   7.311  10.992
22735SOL    HW270213   3.124   7.192  10.960
22736SOL     OW70214   2.617  10.987   6.870
22736SOL    HW170215   2.626  10.892   6.871
22736SOL    HW270216   2.539  11.004   6.922
22737SOL     OW70217   8.278   5.463   3.873
22737SOL    HW170218   8.311   5.449   3.784
22737SOL    HW270219   8.229   5.544   3.868
22738SOL     OW70220   6.818   4.969   0.722
22738SOL    HW170221   6.861   4.935   0.643
22738SOL    HW270222   6.752   5.030   0.689
22739SOL     OW70223   6.851  11.059   7.126
22739SOL    HW170224   6.772  11.090   7.170
22739SOL    HW270225   6.915  11.045   7.196
22740SOL     OW70226   8.253   4.768   2.597
22740SOL    HW170227   8.200   4.719   2.534
22740SOL    HW270228   8.218   4.857   2.594
22741SOL     OW70229   7.517   0.233   7.063
22741SOL    HW170230   7.535   0.323   7.087
22741SOL    HW270231   7.461   0.199   7.133
22742SOL     OW70232   1.195   1.809   5.259
22742SOL    HW170233   1.102   1.829   5.271
22742SOL    HW270234   1.226   1.782   5.345
22743SOL     OW70235   5.599  11.004   1.122
22743SOL    HW170236   5.512  11.024   1.155
22743SOL    HW270237   5.584  10.966   1.035
22744SOL     OW70238   1.223   5.276   8.823
22744SOL    HW170239   1.179   5.191   8.818
22744SOL    HW270240   1.303   5.264   8.772
22745SOL     OW70241   6.262   9.622   9.492
22745SOL    HW170242   6.274   9.545   9.548
22745SOL    HW270243   6.309   9.600   9.411
22746SOL     OW70244   7.293  10.993   8.916
22746SOL    HW170245   7.229  11.015   8.848
22746SOL    HW270246   7.363  11.057   8.904
22747SOL     OW70247   5.944   1.279   9.374
22747SOL    HW170248   5.885   1.291   9.300
22747SOL    HW270249   5.897   1.316   9.448
22748SOL     OW70250   5.682   9.720   0.230
22748SOL    HW170251   5.704   9.672   0.150
22748SOL    HW270252   5.606   9.674   0.265
22749SOL     OW70253   7.833   0.389   5.067
22749SOL    HW170254   7.844   0.478   5.098
22749SOL    HW270255   7.872   0.389   4.979
22750SOL     OW70256   1.701   1.184   3.437
22750SOL    HW170257   1.673   1.273   3.418
22750SOL    HW270258   1.726   1.148   3.352
22751SOL     OW70259   8.215  10.886   3.532
22751SOL    HW170260   8.244  10.942   3.460
22751SOL    HW270261   8.295  10.842   3.561
22752SOL     OW70262   7.609   9.844   9.842
22752SOL    HW170263   7.522   9.810   9.823
22752SOL    HW270264   7.610   9.857   9.937
22753SOL     OW70265   7.802   2.756   3.461
22753SOL    HW170266   7.748   2.801   3.396
22753SOL    HW270267   7.823   2.672   3.420
22754SOL     OW70268   9.402   3.948   9.768
22754SOL    HW170269   9.356   3.972   9.687
22754SOL    HW270270   9.489   3.919   9.739
22755SOL     OW70271   7.281   7.227   7.709
22755SOL    HW170272   7.370   7.201   7.685
22755SOL    HW270273   7.285   7.322   7.718
22756SOL     OW70274   4.467   1.928  11.067
22756SOL    HW170275   4.474   1.963  11.156
22756SOL    HW270276   4.403   1.985  11.024
22757SOL     OW70277   5.268   8.955   3.205
22757SOL    HW170278   5.172   8.958   3.202
22757SOL    HW270279   5.290   8.868   3.172
22758SOL     OW70280   1.930  10.995   8.951
22758SOL    HW170281   1.957  11.084   8.975
22758SOL    HW270282   1.835  10.997   8.956
22759SOL     OW70283  10.057   1.376   1.401
22759SOL    HW170284  10.146   1.341   1.391
22759SOL    HW270285  10.069   1.470   1.409
22760SOL     OW70286   6.346   3.166   0.125
22760SOL    HW170287   6.422   3.214   0.093
22760SOL    HW270288   6.340   3.089   0.069
22761SOL     OW70289   0.495   8.208   2.027
22761SOL    HW170290   0.494   8.112   2.018
22761SOL    HW270291   0.494   8.223   2.121
22762SOL     OW70292   6.377   8.710   8.747
22762SOL    HW170293   6.295   8.672   8.715
22762SOL    HW270294   6.442   8.685   8.681
22763SOL     OW70295   8.235   3.916   7.365
22763SOL    HW170296   8.218   3.904   7.271
22763SOL    HW270297   8.292   3.992   7.369
22764SOL     OW70298   3.211   3.556   1.120
22764SOL    HW170299   3.287   3.511   1.083
22764SOL    HW270300   3.185   3.502   1.194
22765SOL     OW70301   8.227   4.052   9.077
22765SOL    HW170302   8.300   4.077   9.021
22765SOL    HW270303   8.166   4.125   9.071
22766SOL     OW70304   8.717   4.754   7.589
22766SOL    HW170305   8.710   4.735   7.495
22766SOL    HW270306   8.801   4.715   7.615
22767SOL     OW70307   7.097   7.628   8.706
22767SOL    HW170308   7.042   7.693   8.749
22767SOL    HW270309   7.035   7.568   8.665
22768SOL     OW70310   2.309   2.333   6.799
22768SOL    HW170311   2.393   2.376   6.813
22768SOL    HW270312   2.329   2.239   6.802
22769SOL     OW70313   0.478   2.557   6.503
22769SOL    HW170314   0.448   2.484   6.557
22769SOL    HW270315   0.398   2.593   6.465
22770SOL     OW70316   5.784   7.942   1.769
22770SOL    HW170317   5.702   7.892   1.771
22770SOL    HW270318   5.760   8.025   1.728
22771SOL     OW70319  10.233   3.338   5.271
22771SOL    HW170320  10.319   3.372   5.295
22771SOL    HW270321  10.250   3.277   5.199
22772SOL     OW70322   7.135   7.530   0.786
22772SOL    HW170323   7.174   7.534   0.698
22772SOL    HW270324   7.136   7.620   0.817
22773SOL     OW70325   5.344   3.177   5.455
22773SOL    HW170326   5.422   3.227   5.479
22773SOL    HW270327   5.273   3.241   5.453
22774SOL     OW70328   5.547   2.855   8.480
22774SOL    HW170329   5.519   2.934   8.526
22774SOL    HW270330   5.478   2.791   8.498
22775SOL     OW70331   7.719   4.726  10.363
22775SOL    HW170332   7.752   4.669  10.432
22775SOL    HW270333   7.697   4.666  10.291
22776SOL     OW70334   6.878   2.672   7.616
22776SOL    HW170335   6.872   2.583   7.651
22776SOL    HW270336   6.904   2.660   7.524
22777SOL     OW70337   5.049   7.896  11.027
22777SOL    HW170338   4.989   7.846  11.083
22777SOL    HW270339   4.992   7.950  10.973
22778SOL     OW70340   6.864   8.236   8.578
22778SOL    HW170341   6.957   8.253   8.562
22778SOL    HW270342   6.821   8.319   8.560
22779SOL     OW70343   7.265  10.336   2.260
22779SOL    HW170344   7.232  10.377   2.180
22779SOL    HW270345   7.321  10.402   2.300
22780SOL     OW70346   0.990   8.500   0.303
22780SOL    HW170347   0.978   8.495   0.398
22780SOL    HW270348   0.906   8.471   0.267
22781SOL     OW70349   0.351  10.777   1.031
22781SOL    HW170350   0.263  10.762   0.996
22781SOL    HW270351   0.406  10.712   0.986
22782SOL     OW70352   3.172  10.898   5.704
22782SOL    HW170353   3.146  10.809   5.680
22782SOL    HW270354   3.148  10.906   5.796
22783SOL     OW70355   8.221   3.225   8.198
22783SOL    HW170356   8.273   3.149   8.170
22783SOL    HW270357   8.136   3.212   8.157
22784SOL     OW70358   1.645  11.021   4.900
22784SOL    HW170359   1.575  11.004   4.837
22784SOL    HW270360   1.711  11.069   4.850
22785SOL     OW70361   4.605   0.888   8.259
22785SOL    HW170362   4.594   0.811   8.202
22785SOL    HW270363   4.685   0.869   8.309
22786SOL     OW70364   5.138   7.102   6.370
22786SOL    HW170365   5.181   7.029   6.415
22786SOL    HW270366   5.179   7.180   6.406
22787SOL     OW70367   7.988   8.325   0.822
22787SOL    HW170368   7.917   8.285   0.872
22787SOL    HW270369   8.042   8.369   0.887
22788SOL     OW70370   9.011   4.450   3.830
22788SOL    HW170371   8.943   4.426   3.892
22788SOL    HW270372   8.967   4.505   3.765
22789SOL     OW70373  10.996   8.152   7.015
22789SOL    HW170374  11.038   8.199   7.087
22789SOL    HW270375  10.914   8.199   7.000
22790SOL     OW70376   0.112   8.406   1.475
22790SOL    HW170377   0.165   8.436   1.401
22790SOL    HW270378   0.053   8.479   1.494
22791SOL     OW70379   6.617   2.575   5.414
22791SOL    HW170380   6.579   2.655   5.378
22791SOL    HW270381   6.679   2.605   5.480
22792SOL     OW70382   6.402   1.593   9.227
22792SOL    HW170383   6.308   1.610   9.228
22792SOL    HW270384   6.438   1.657   9.165
22793SOL     OW70385   6.516   6.777  10.385
22793SOL    HW170386   6.544   6.686  10.370
22793SOL    HW270387   6.563   6.827  10.319
22794SOL     OW70388   0.574   9.193   7.590
22794SOL    HW170389   0.655   9.180   7.639
22794SOL    HW270390   0.601   9.243   7.513
22795SOL     OW70391   4.022   7.877  10.748
22795SOL    HW170392   4.076   7.803  10.721
22795SOL    HW270393   3.932   7.849  10.730
22796SOL     OW70394   9.337   6.762   9.108
22796SOL    HW170395   9.406   6.696   9.111
22796SOL    HW270396   9.287   6.748   9.188
22797SOL     OW70397   1.274   9.161   1.573
22797SOL    HW170398   1.179   9.171   1.562
22797SOL    HW270399   1.299   9.096   1.507
22798SOL     OW70400   9.780   1.590  10.598
22798SOL    HW170401   9.789   1.629  10.684
22798SOL    HW270402   9.747   1.502  10.615
22799SOL     OW70403   3.083   5.359   3.770
22799SOL    HW170404   3.036   5.281   3.799
22799SOL    HW270405   3.171   5.348   3.805
22800SOL     OW70406   4.937   9.334   0.663
22800SOL    HW170407   4.958   9.241   0.653
22800SOL    HW270408   4.843   9.339   0.646
22801SOL     OW70409   7.472   0.982   6.191
22801SOL    HW170410   7.477   0.960   6.284
22801SOL    HW270411   7.439   1.072   6.189
22802SOL     OW70412   7.304   2.471   2.809
22802SOL    HW170413   7.266   2.447   2.724
22802SOL    HW270414   7.397   2.483   2.791
22803SOL     OW70415  10.028   4.274   1.667
22803SOL    HW170416   9.956   4.218   1.639
22803SOL    HW270417   9.986   4.349   1.708
22804SOL     OW70418   4.922  10.993   0.877
22804SOL    HW170419   4.932  11.088   0.876
22804SOL    HW270420   4.999  10.960   0.830
22805SOL     OW70421   4.682   8.599  10.022
22805SOL    HW170422   4.766   8.582  10.064
22805SOL    HW270423   4.634   8.516  10.030
22806SOL     OW70424   1.016   5.596   2.766
22806SOL    HW170425   1.076   5.670   2.771
22806SOL    HW270426   0.978   5.590   2.853
22807SOL     OW70427   2.437   1.814   3.675
22807SOL    HW170428   2.403   1.752   3.739
22807SOL    HW270429   2.513   1.853   3.717
22808SOL     OW70430   0.146   2.416   6.671
22808SOL    HW170431   0.123   2.325   6.649
22808SOL    HW270432   0.241   2.414   6.682
22809SOL     OW70433   2.243   9.101   8.548
22809SOL    HW170434   2.245   9.039   8.475
22809SOL    HW270435   2.330   9.094   8.588
22810SOL     OW70436   0.769  10.798   1.448
22810SOL    HW170437   0.693  10.790   1.390
22810SOL    HW270438   0.800  10.708   1.460
22811SOL     OW70439   4.736   3.933   0.711
22811SOL    HW170440   4.741   3.989   0.788
22811SOL    HW270441   4.670   3.974   0.655
22812SOL     OW70442   7.088   3.587   1.348
22812SOL    HW170443   7.012   3.573   1.292
22812SOL    HW270444   7.098   3.682   1.352
22813SOL     OW70445   9.292   9.463   2.348
22813SOL    HW170446   9.340   9.407   2.409
22813SOL    HW270447   9.360   9.499   2.290
22814SOL     OW70448   5.144   9.482   5.713
22814SOL    HW170449   5.101   9.402   5.681
22814SOL    HW270450   5.234   9.454   5.732
22815SOL     OW70451   7.901   0.631   1.074
22815SOL    HW170452   7.813   0.637   1.111
22815SOL    HW270453   7.952   0.584   1.140
22816SOL     OW70454  10.008   4.431   4.230
22816SOL    HW170455  10.083   4.435   4.289
22816SOL    HW270456   9.934   4.408   4.286
22817SOL     OW70457   9.945   5.968   3.586
22817SOL    HW170458   9.930   5.993   3.677
22817SOL    HW270459   9.863   5.989   3.541
22818SOL     OW70460   8.563   6.435   5.291
22818SOL    HW170461   8.617   6.358   5.272
22818SOL    HW270462   8.541   6.470   5.205
22819SOL     OW70463   6.823  10.410   6.214
22819SOL    HW170464   6.818  10.321   6.178
22819SOL    HW270465   6.912  10.439   6.192
22820SOL     OW70466   6.765   4.081   6.964
22820SOL    HW170467   6.771   4.103   7.057
22820SOL    HW270468   6.717   4.154   6.924
22821SOL     OW70469  10.051   5.688   4.211
22821SOL    HW170470   9.972   5.685   4.157
22821SOL    HW270471  10.101   5.610   4.185
22822SOL     OW70472   2.772   3.423   6.758
22822SOL    HW170473   2.765   3.389   6.847
22822SOL    HW270474   2.682   3.446   6.734
22823SOL     OW70475   9.278   6.255   1.782
22823SOL    HW170476   9.216   6.187   1.810
22823SOL    HW270477   9.364   6.215   1.794
22824SOL     OW70478   6.756   2.292   9.573
22824SOL    HW170479   6.847   2.261   9.571
22824SOL    HW270480   6.743   2.324   9.662
22825SOL     OW70481   7.345   1.980   7.654
22825SOL    HW170482   7.440   1.995   7.655
22825SOL    HW270483   7.331   1.913   7.721
22826SOL     OW70484   6.424   6.647   1.019
22826SOL    HW170485   6.433   6.715   0.952
22826SOL    HW270486   6.348   6.673   1.070
22827SOL     OW70487   9.666   1.943   4.503
22827SOL    HW170488   9.664   1.956   4.408
22827SOL    HW270489   9.724   2.012   4.535
22828SOL     OW70490   7.095   4.566  11.029
22828SOL    HW170491   7.109   4.600  11.117
22828SOL    HW270492   7.131   4.633  10.971
22829SOL     OW70493   0.274   4.111   0.636
22829SOL    HW170494   0.352   4.076   0.678
22829SOL    HW270495   0.218   4.138   0.708
22830SOL     OW70496   2.557   5.379   4.128
22830SOL    HW170497   2.584   5.453   4.182
22830SOL    HW270498   2.555   5.413   4.038
22831SOL     OW70499   3.311   9.949   1.589
22831SOL    HW170500   3.307  10.025   1.646
22831SOL    HW270501   3.307   9.874   1.648
22832SOL     OW70502   7.116   1.266   9.195
22832SOL    HW170503   7.097   1.238   9.284
22832SOL    HW270504   7.170   1.195   9.159
22833SOL     OW70505   1.576  11.066   8.507
22833SOL    HW170506   1.536  11.142   8.465
22833SOL    HW270507   1.639  11.033   8.442
22834SOL     OW70508   2.778  10.955   5.430
22834SOL    HW170509   2.807  10.914   5.348
22834SOL    HW270510   2.789  10.887   5.496
22835SOL     OW70511   8.723   4.246   7.573
22835SOL    HW170512   8.810   4.286   7.563
22835SOL    HW270513   8.714   4.190   7.496
22836SOL     OW70514   1.591   8.243   5.467
22836SOL    HW170515   1.510   8.288   5.488
22836SOL    HW270516   1.645   8.252   5.545
22837SOL     OW70517   5.461   3.556   0.456
22837SOL    HW170518   5.375   3.515   0.465
22837SOL    HW270519   5.477   3.599   0.540
22838SOL     OW70520   5.793   0.142   3.207
22838SOL    HW170521   5.817   0.073   3.144
22838SOL    HW270522   5.772   0.094   3.287
22839SOL     OW70523   3.541   3.746   5.127
22839SOL    HW170524   3.635   3.745   5.111
22839SOL    HW270525   3.515   3.837   5.113
22840SOL     OW70526   3.836   0.491   9.413
22840SOL    HW170527   3.788   0.416   9.376
22840SOL    HW270528   3.927   0.476   9.385
22841SOL     OW70529   8.275   2.542   3.764
22841SOL    HW170530   8.218   2.576   3.832
22841SOL    HW270531   8.352   2.508   3.811
22842SOL     OW70532   8.842   1.825   0.526
22842SOL    HW170533   8.850   1.809   0.620
22842SOL    HW270534   8.806   1.913   0.520
22843SOL     OW70535   5.083   7.869   9.979
22843SOL    HW170536   5.001   7.844   9.936
22843SOL    HW270537   5.094   7.804  10.048
22844SOL     OW70538   8.415  10.673   8.025
22844SOL    HW170539   8.327  10.643   8.049
22844SOL    HW270540   8.471  10.642   8.096
22845SOL     OW70541   3.280   3.877   4.468
22845SOL    HW170542   3.362   3.910   4.430
22845SOL    HW270543   3.279   3.912   4.557
22846SOL     OW70544   6.460   2.922   7.034
22846SOL    HW170545   6.433   2.839   6.995
22846SOL    HW270546   6.546   2.940   6.995
22847SOL     OW70547   7.685   9.803   7.151
22847SOL    HW170548   7.624   9.829   7.219
22847SOL    HW270549   7.721   9.885   7.117
22848SOL     OW70550   8.334   3.509   2.494
22848SOL    HW170551   8.399   3.544   2.433
22848SOL    HW270552   8.275   3.582   2.512
22849SOL     OW70553   8.947  10.521  10.510
22849SOL    HW170554   8.943  10.485  10.421
22849SOL    HW270555   8.866  10.491  10.551
22850SOL     OW70556   4.942   0.113  10.819
22850SOL    HW170557   4.853   0.083  10.835
22850SOL    HW270558   4.973   0.143  10.904
22851SOL     OW70559   6.934   5.145   1.208
22851SOL    HW170560   6.892   5.059   1.211
22851SOL    HW270561   6.921   5.181   1.295
22852SOL     OW70562   5.437   1.951  10.934
22852SOL    HW170563   5.391   2.020  10.980
22852SOL    HW270564   5.380   1.875  10.941
22853SOL     OW70565   6.466   9.497   9.333
22853SOL    HW170566   6.480   9.537   9.247
22853SOL    HW270567   6.443   9.406   9.313
22854SOL     OW70568   6.775   6.704  10.859
22854SOL    HW170569   6.756   6.751  10.939
22854SOL    HW270570   6.837   6.636  10.885
22855SOL     OW70571   6.315  11.022   8.270
22855SOL    HW170572   6.258  11.098   8.282
22855SOL    HW270573   6.273  10.953   8.321
22856SOL     OW70574   8.135   5.020   2.598
22856SOL    HW170575   8.048   5.056   2.610
22856SOL    HW270576   8.176   5.077   2.533
22857SOL     OW70577   3.430   9.294   9.496
22857SOL    HW170578   3.456   9.338   9.415
22857SOL    HW270579   3.360   9.348   9.532
22858SOL     OW70580   7.712   1.300   9.727
22858SOL    HW170581   7.655   1.282   9.802
22858SOL    HW270582   7.754   1.216   9.708
22859SOL     OW70583   9.474   0.863   5.966
22859SOL    HW170584   9.504   0.783   6.009
22859SOL    HW270585   9.449   0.921   6.037
22860SOL     OW70586   1.496   1.334   6.829
22860SOL    HW170587   1.424   1.388   6.797
22860SOL    HW270588   1.461   1.245   6.829
22861SOL     OW70589   1.981   2.521   6.015
22861SOL    HW170590   1.931   2.601   6.028
22861SOL    HW270591   2.023   2.532   5.929
22862SOL     OW70592   9.569   4.407   5.483
22862SOL    HW170593   9.656   4.409   5.522
22862SOL    HW270594   9.574   4.469   5.410
22863SOL     OW70595   4.653   0.742   5.461
22863SOL    HW170596   4.693   0.656   5.478
22863SOL    HW270597   4.579   0.723   5.403
22864SOL     OW70598   9.543   9.457   9.237
22864SOL    HW170599   9.476   9.432   9.173
22864SOL    HW270600   9.556   9.550   9.223
22865SOL     OW70601   4.247   2.430   0.331
22865SOL    HW170602   4.283   2.483   0.260
22865SOL    HW270603   4.208   2.493   0.391
22866SOL     OW70604   1.013   1.505   3.832
22866SOL    HW170605   1.085   1.443   3.818
22866SOL    HW270606   0.975   1.517   3.745
22867SOL     OW70607   7.010   1.000   8.357
22867SOL    HW170608   7.093   0.974   8.397
22867SOL    HW270609   6.978   1.071   8.411
22868SOL     OW70610   6.610   8.840   9.202
22868SOL    HW170611   6.641   8.914   9.254
22868SOL    HW270612   6.535   8.805   9.250
22869SOL     OW70613  10.024   1.666   3.574
22869SOL    HW170614   9.986   1.587   3.534
22869SOL    HW270615   9.952   1.729   3.576
22870SOL     OW70616   6.101   3.006   6.757
22870SOL    HW170617   6.190   3.023   6.786
22870SOL    HW270618   6.083   3.075   6.693
22871SOL     OW70619   3.871   2.313   6.195
22871SOL    HW170620   3.798   2.279   6.246
22871SOL    HW270621   3.947   2.305   6.252
22872SOL     OW70622   1.317   9.651  10.052
22872SOL    HW170623   1.403   9.620  10.080
22872SOL    HW270624   1.336   9.718   9.986
22873SOL     OW70625   6.746   2.469   8.905
22873SOL    HW170626   6.709   2.399   8.959
22873SOL    HW270627   6.790   2.422   8.833
22874SOL     OW70628   0.173  10.088   6.315
22874SOL    HW170629   0.122  10.166   6.292
22874SOL    HW270630   0.164  10.031   6.238
22875SOL     OW70631   1.048   9.473   2.542
22875SOL    HW170632   1.012   9.384   2.544
22875SOL    HW270633   1.140   9.461   2.566
22876SOL     OW70634   5.601   1.982  10.667
22876SOL    HW170635   5.535   1.916  10.647
22876SOL    HW270636   5.553   2.052  10.710
22877SOL     OW70637   7.132   9.535   6.899
22877SOL    HW170638   7.143   9.515   6.992
22877SOL    HW270639   7.220   9.560   6.869
22878SOL     OW70640   2.513  10.197   7.320
22878SOL    HW170641   2.589  10.206   7.262
22878SOL    HW270642   2.486  10.105   7.310
22879SOL     OW70643  10.252   2.166   3.240
22879SOL    HW170644  10.231   2.218   3.317
22879SOL    HW270645  10.206   2.209   3.168
22880SOL     OW70646   9.253   1.959   9.496
22880SOL    HW170647   9.315   1.915   9.437
22880SOL    HW270648   9.176   1.975   9.441
22881SOL     OW70649   9.707   3.409   9.995
22881SOL    HW170650   9.616   3.403  10.025
22881SOL    HW270651   9.702   3.397   9.900
22882SOL     OW70652   8.609   8.392   0.654
22882SOL    HW170653   8.530   8.432   0.689
22882SOL    HW270654   8.656   8.464   0.613
22883SOL     OW70655   7.621  10.291   8.472
22883SOL    HW170656   7.711  10.320   8.486
22883SOL    HW270657   7.595  10.253   8.556
22884SOL     OW70658   5.664   2.096  10.428
22884SOL    HW170659   5.753   2.088  10.461
22884SOL    HW270660   5.609   2.064  10.499
22885SOL     OW70661   8.965  10.820   4.464
22885SOL    HW170662   9.038  10.859   4.512
22885SOL    HW270663   8.965  10.728   4.491
22886SOL     OW70664  10.802  10.800   0.708
22886SOL    HW170665  10.811  10.757   0.793
22886SOL    HW270666  10.834  10.735   0.645
22887SOL     OW70667   7.267   5.793   8.928
22887SOL    HW170668   7.345   5.821   8.880
22887SOL    HW270669   7.196   5.842   8.888
22888SOL     OW70670   5.971   4.681   8.125
22888SOL    HW170671   5.943   4.589   8.117
22888SOL    HW270672   6.017   4.698   8.042
22889SOL     OW70673  10.741   6.794   7.425
22889SOL    HW170674  10.703   6.828   7.344
22889SOL    HW270675  10.835   6.812   7.417
22890SOL     OW70676   5.980   8.015   9.674
22890SOL    HW170677   5.931   8.066   9.738
22890SOL    HW270678   5.938   8.035   9.590
22891SOL     OW70679   9.120   0.904   9.562
22891SOL    HW170680   9.156   0.990   9.542
22891SOL    HW270681   9.026   0.918   9.574
22892SOL     OW70682   9.143   4.367   9.998
22892SOL    HW170683   9.173   4.420  10.072
22892SOL    HW270684   9.222   4.325   9.965
22893SOL     OW70685   6.044   4.355   9.606
22893SOL    HW170686   5.981   4.410   9.559
22893SOL    HW270687   6.092   4.416   9.662
22894SOL     OW70688   3.469   5.637   1.982
22894SOL    HW170689   3.405   5.608   2.047
22894SOL    HW270690   3.421   5.637   1.899
22895SOL     OW70691   1.057   5.858   3.519
22895SOL    HW170692   1.052   5.819   3.431
22895SOL    HW270693   1.151   5.874   3.532
22896SOL     OW70694   3.162   6.619  10.352
22896SOL    HW170695   3.093   6.623  10.418
22896SOL    HW270696   3.125   6.566  10.281
22897SOL     OW70697   0.602  10.235   4.445
22897SOL    HW170698   0.637  10.260   4.359
22897SOL    HW270699   0.554  10.154   4.428
22898SOL     OW70700   8.340   1.015   0.158
22898SOL    HW170701   8.401   1.060   0.100
22898SOL    HW270702   8.261   1.068   0.156
22899SOL     OW70703   0.549   4.379   5.619
22899SOL    HW170704   0.604   4.301   5.630
22899SOL    HW270705   0.586   4.423   5.542
22900SOL     OW70706   8.944   8.284   8.873
22900SOL    HW170707   8.917   8.260   8.784
22900SOL    HW270708   9.026   8.237   8.887
22901SOL     OW70709   6.654   6.351   9.695
22901SOL    HW170710   6.712   6.338   9.620
22901SOL    HW270711   6.628   6.443   9.690
22902SOL     OW70712   8.114   3.239   0.692
22902SOL    HW170713   8.172   3.303   0.734
22902SOL    HW270714   8.031   3.247   0.739
22903SOL     OW70715   9.685  10.554   7.419
22903SOL    HW170716   9.687  10.645   7.449
22903SOL    HW270717   9.657  10.560   7.327
22904SOL     OW70718  10.773   7.597   4.913
22904SOL    HW170719  10.848   7.602   4.853
22904SOL    HW270720  10.758   7.687   4.940
22905SOL     OW70721  10.096  10.401   6.177
22905SOL    HW170722  10.048  10.359   6.248
22905SOL    HW270723  10.030  10.449   6.128
22906SOL     OW70724   3.210   3.898   0.174
22906SOL    HW170725   3.213   3.944   0.090
22906SOL    HW270726   3.291   3.924   0.219
22907SOL     OW70727   8.050   5.061   5.926
22907SOL    HW170728   8.144   5.081   5.923
22907SOL    HW270729   8.043   4.991   5.991
22908SOL     OW70730   2.366   9.767   1.313
22908SOL    HW170731   2.362   9.758   1.218
22908SOL    HW270732   2.286   9.813   1.336
22909SOL     OW70733   7.581  10.930   7.162
22909SOL    HW170734   7.628  10.957   7.241
22909SOL    HW270735   7.615  10.987   7.093
22910SOL     OW70736   6.055   8.646  10.847
22910SOL    HW170737   6.021   8.733  10.866
22910SOL    HW270738   6.033   8.631  10.755
22911SOL     OW70739   7.338   2.827   8.526
22911SOL    HW170740   7.249   2.858   8.509
22911SOL    HW270741   7.340   2.809   8.620
22912SOL     OW70742   9.368  10.105  10.827
22912SOL    HW170743   9.361  10.086  10.920
22912SOL    HW270744   9.278  10.104  10.795
22913SOL     OW70745   3.357  10.671  10.236
22913SOL    HW170746   3.290  10.693  10.171
22913SOL    HW270747   3.309  10.667  10.319
22914SOL     OW70748   4.439  10.721   4.964
22914SOL    HW170749   4.371  10.779   4.930
22914SOL    HW270750   4.424  10.718   5.058
22915SOL     OW70751   0.006   2.555   4.795
22915SOL    HW170752   0.099   2.575   4.797
22915SOL    HW270753  -0.013   2.515   4.880
22916SOL     OW70754   6.780  11.102  10.159
22916SOL    HW170755   6.850  11.076  10.219
22916SOL    HW270756   6.768  11.026  10.102
22917SOL     OW70757  10.984  10.358   3.408
22917SOL    HW170758  10.918  10.415   3.369
22917SOL    HW270759  11.067  10.403   3.393
22918SOL     OW70760   2.838  11.030   7.404
22918SOL    HW170761   2.845  11.107   7.460
22918SOL    HW270762   2.839  10.956   7.464
22919SOL     OW70763   3.607   0.717   8.035
22919SOL    HW170764   3.631   0.754   7.950
22919SOL    HW270765   3.515   0.740   8.046
22920SOL     OW70766   6.125   5.034   8.412
22920SOL    HW170767   6.176   4.953   8.408
22920SOL    HW270768   6.052   5.019   8.352
22921SOL     OW70769   7.922   0.724   3.963
22921SOL    HW170770   7.863   0.697   3.892
22921SOL    HW270771   8.008   0.690   3.937
22922SOL     OW70772   8.471   7.644   9.880
22922SOL    HW170773   8.545   7.678   9.930
22922SOL    HW270774   8.400   7.636   9.943
22923SOL     OW70775   8.206   3.688   3.269
22923SOL    HW170776   8.280   3.749   3.272
22923SOL    HW270777   8.173   3.695   3.179
22924SOL     OW70778   4.976   8.219   7.607
22924SOL    HW170779   4.894   8.214   7.557
22924SOL    HW270780   4.985   8.132   7.647
22925SOL     OW70781   6.987   7.635  10.828
22925SOL    HW170782   7.064   7.664  10.779
22925SOL    HW270783   6.971   7.546  10.796
22926SOL     OW70784   9.463   7.826   7.272
22926SOL    HW170785   9.526   7.757   7.251
22926SOL    HW270786   9.379   7.780   7.280
22927SOL     OW70787   7.551   7.006   9.610
22927SOL    HW170788   7.574   6.998   9.702
22927SOL    HW270789   7.471   7.057   9.609
22928SOL     OW70790   0.999   6.341   9.159
22928SOL    HW170791   1.010   6.436   9.153
22928SOL    HW270792   0.925   6.329   9.219
22929SOL     OW70793   6.403   3.589   5.107
22929SOL    HW170794   6.468   3.574   5.038
22929SOL    HW270795   6.452   3.577   5.188
22930SOL     OW70796   4.677   2.147   1.991
22930SOL    HW170797   4.586   2.173   2.001
22930SOL    HW270798   4.684   2.119   1.899
22931SOL     OW70799   3.489   1.543   2.677
22931SOL    HW170800   3.499   1.448   2.673
22931SOL    HW270801   3.576   1.575   2.700
22932SOL     OW70802   7.989   2.348   9.632
22932SOL    HW170803   7.970   2.261   9.595
22932SOL    HW270804   8.083   2.360   9.616
22933SOL     OW70805  11.103   7.336   3.047
22933SOL    HW170806  11.009   7.335   3.066
22933SOL    HW270807  11.110   7.383   2.964
22934SOL     OW70808   3.537   9.306   9.739
22934SOL    HW170809   3.497   9.278   9.656
22934SOL    HW270810   3.477   9.275   9.807
22935SOL     OW70811   9.812   2.120   1.143
22935SOL    HW170812   9.728   2.099   1.184
22935SOL    HW270813   9.877   2.106   1.212
22936SOL     OW70814   1.111   8.662   6.929
22936SOL    HW170815   1.036   8.606   6.908
22936SOL    HW270816   1.073   8.737   6.974
22937SOL     OW70817   8.267   5.773   3.525
22937SOL    HW170818   8.322   5.837   3.570
22937SOL    HW270819   8.248   5.813   3.440
22938SOL     OW70820   7.487   0.423   6.206
22938SOL    HW170821   7.406   0.457   6.167
22938SOL    HW270822   7.474   0.432   6.300
22939SOL     OW70823   4.924   1.545   2.625
22939SOL    HW170824   4.909   1.559   2.718
22939SOL    HW270825   5.018   1.530   2.617
22940SOL     OW70826   4.804   1.443   9.062
22940SOL    HW170827   4.733   1.397   9.107
22940SOL    HW270828   4.856   1.373   9.021
22941SOL     OW70829   9.712   0.721   0.940
22941SOL    HW170830   9.755   0.677   0.866
22941SOL    HW270831   9.762   0.802   0.952
22942SOL     OW70832   4.855   3.948   2.701
22942SOL    HW170833   4.914   3.927   2.773
22942SOL    HW270834   4.908   4.001   2.641
22943SOL     OW70835   0.617   5.940  10.566
22943SOL    HW170836   0.620   5.915  10.658
22943SOL    HW270837   0.550   6.008  10.562
22944SOL     OW70838   1.177   7.562  10.466
22944SOL    HW170839   1.183   7.655  10.445
22944SOL    HW270840   1.145   7.559  10.556
22945SOL     OW70841   2.274   1.063   6.917
22945SOL    HW170842   2.192   1.068   6.868
22945SOL    HW270843   2.342   1.071   6.850
22946SOL     OW70844   6.812  10.683  10.783
22946SOL    HW170845   6.791  10.590  10.778
22946SOL    HW270846   6.898  10.686  10.824
22947SOL     OW70847   6.228   2.038   7.112
22947SOL    HW170848   6.236   2.129   7.083
22947SOL    HW270849   6.206   2.043   7.205
22948SOL     OW70850   7.143   1.702   5.277
22948SOL    HW170851   7.147   1.794   5.252
22948SOL    HW270852   7.078   1.698   5.346
22949SOL     OW70853   9.407  10.992  10.046
22949SOL    HW170854   9.468  10.922  10.025
22949SOL    HW270855   9.424  11.059   9.980
22950SOL     OW70856   7.199   7.814  10.415
22950SOL    HW170857   7.216   7.841  10.505
22950SOL    HW270858   7.118   7.859  10.391
22951SOL     OW70859   6.161   9.660   0.405
22951SOL    HW170860   6.097   9.615   0.349
22951SOL    HW270861   6.150   9.620   0.491
22952SOL     OW70862   5.914   9.142   6.610
22952SOL    HW170863   5.942   9.233   6.613
22952SOL    HW270864   5.882   9.124   6.698
22953SOL     OW70865   8.508   4.196   6.928
22953SOL    HW170866   8.423   4.186   6.971
22953SOL    HW270867   8.547   4.108   6.931
22954SOL     OW70868   1.194   6.937   8.346
22954SOL    HW170869   1.247   6.896   8.414
22954SOL    HW270870   1.244   7.014   8.320
22955SOL     OW70871   3.320   8.435   2.918
22955SOL    HW170872   3.333   8.340   2.924
22955SOL    HW270873   3.409   8.471   2.916
22956SOL     OW70874  10.348   7.893   8.276
22956SOL    HW170875  10.288   7.958   8.241
22956SOL    HW270876  10.423   7.895   8.216
22957SOL     OW70877   0.182   2.700  10.971
22957SOL    HW170878   0.153   2.700  11.062
22957SOL    HW270879   0.102   2.716  10.921
22958SOL     OW70880   0.357   1.818  10.453
22958SOL    HW170881   0.314   1.757  10.513
22958SOL    HW270882   0.319   1.903  10.474
22959SOL     OW70883  10.122   1.628   0.020
22959SOL    HW170884  10.037   1.584   0.027
22959SOL    HW270885  10.161   1.619   0.107
22960SOL     OW70886   5.346   7.887   5.717
22960SOL    HW170887   5.406   7.822   5.680
22960SOL    HW270888   5.347   7.870   5.811
22961SOL     OW70889   5.275   6.521   8.707
22961SOL    HW170890   5.195   6.471   8.693
22961SOL    HW270891   5.280   6.580   8.632
22962SOL     OW70892   5.040   6.593   6.878
22962SOL    HW170893   5.111   6.572   6.938
22962SOL    HW270894   5.002   6.508   6.855
22963SOL     OW70895   6.556  10.392   5.321
22963SOL    HW170896   6.551  10.365   5.229
22963SOL    HW270897   6.643  10.432   5.329
22964SOL     OW70898  10.713   7.503   3.400
22964SOL    HW170899  10.787   7.509   3.460
22964SOL    HW270900  10.636   7.509   3.456
22965SOL     OW70901   8.534  11.081   2.400
22965SOL    HW170902   8.499  11.038   2.322
22965SOL    HW270903   8.534  11.013   2.467
22966SOL     OW70904   8.318  10.049  10.950
22966SOL    HW170905   8.328  10.042  11.045
22966SOL    HW270906   8.408  10.050  10.916
22967SOL     OW70907   3.116   3.075   5.086
22967SOL    HW170908   3.033   3.119   5.103
22967SOL    HW270909   3.178   3.145   5.066
22968SOL     OW70910   7.483   0.738   0.696
22968SOL    HW170911   7.434   0.698   0.624
22968SOL    HW270912   7.439   0.821   0.712
22969SOL     OW70913   4.325  10.276   4.112
22969SOL    HW170914   4.404  10.276   4.166
22969SOL    HW270915   4.253  10.264   4.174
22970SOL     OW70916   5.289   2.955  10.836
22970SOL    HW170917   5.279   3.050  10.836
22970SOL    HW270918   5.300   2.932  10.743
22971SOL     OW70919   7.214  10.041   0.081
22971SOL    HW170920   7.287  10.073   0.133
22971SOL    HW270921   7.222   9.945   0.085
22972SOL     OW70922   7.026   0.372   6.050
22972SOL    HW170923   7.020   0.276   6.050
22972SOL    HW270924   7.072   0.393   5.968
22973SOL     OW70925   5.330   4.119   4.456
22973SOL    HW170926   5.339   4.124   4.361
22973SOL    HW270927   5.360   4.030   4.477
22974SOL     OW70928   4.773   1.680   9.373
22974SOL    HW170929   4.842   1.623   9.406
22974SOL    HW270930   4.692   1.638   9.401
22975SOL     OW70931   0.661   3.199   4.672
22975SOL    HW170932   0.657   3.113   4.714
22975SOL    HW270933   0.587   3.247   4.709
22976SOL     OW70934   8.282   1.699   7.916
22976SOL    HW170935   8.283   1.772   7.978
22976SOL    HW270936   8.191   1.670   7.914
22977SOL     OW70937   8.947   5.842   5.833
22977SOL    HW170938   8.921   5.925   5.793
22977SOL    HW270939   9.001   5.799   5.766
22978SOL     OW70940   6.482   9.586   2.378
22978SOL    HW170941   6.437   9.525   2.436
22978SOL    HW270942   6.467   9.550   2.290
22979SOL     OW70943   5.962   9.258   2.275
22979SOL    HW170944   5.876   9.230   2.307
22979SOL    HW270945   6.023   9.192   2.308
22980SOL     OW70946   7.824   3.124   5.765
22980SOL    HW170947   7.750   3.074   5.800
22980SOL    HW270948   7.827   3.203   5.819
22981SOL     OW70949   5.686   7.258   1.233
22981SOL    HW170950   5.640   7.176   1.213
22981SOL    HW270951   5.620   7.314   1.273
22982SOL     OW70952   6.900   2.530   9.441
22982SOL    HW170953   6.833   2.477   9.485
22982SOL    HW270954   6.931   2.590   9.508
22983SOL     OW70955   4.429   9.808   9.427
22983SOL    HW170956   4.439   9.899   9.401
22983SOL    HW270957   4.420   9.760   9.344
22984SOL     OW70958   0.411   9.500  10.787
22984SOL    HW170959   0.399   9.549  10.705
22984SOL    HW270960   0.501   9.467  10.782
22985SOL     OW70961   7.745   3.467   3.863
22985SOL    HW170962   7.766   3.381   3.826
22985SOL    HW270963   7.666   3.452   3.914
22986SOL     OW70964   8.633   7.781   5.260
22986SOL    HW170965   8.704   7.736   5.305
22986SOL    HW270966   8.648   7.873   5.278
22987SOL     OW70967   8.878  10.139   8.080
22987SOL    HW170968   8.867  10.063   8.137
22987SOL    HW270969   8.859  10.214   8.135
22988SOL     OW70970   5.390   8.636   2.531
22988SOL    HW170971   5.427   8.566   2.476
22988SOL    HW270972   5.318   8.671   2.478
22989SOL     OW70973   7.306   8.489   0.880
22989SOL    HW170974   7.233   8.432   0.904
22989SOL    HW270975   7.274   8.577   0.897
22990SOL     OW70976   2.037   6.979  10.991
22990SOL    HW170977   2.097   6.950  10.922
22990SOL    HW270978   1.962   6.920  10.983
22991SOL     OW70979   6.395   4.574   6.179
22991SOL    HW170980   6.471   4.626   6.153
22991SOL    HW270981   6.403   4.493   6.128
22992SOL     OW70982   6.670   2.930   4.468
22992SOL    HW170983   6.730   3.004   4.475
22992SOL    HW270984   6.717   2.857   4.510
22993SOL     OW70985   3.733  10.917   3.074
22993SOL    HW170986   3.808  10.965   3.109
22993SOL    HW270987   3.668  10.917   3.144
22994SOL     OW70988   5.699   2.734  10.986
22994SOL    HW170989   5.770   2.734  11.051
22994SOL    HW270990   5.716   2.811  10.931
22995SOL     OW70991  10.187   2.397   0.677
22995SOL    HW170992  10.129   2.444   0.736
22995SOL    HW270993  10.249   2.351   0.734
22996SOL     OW70994  11.060   1.056   2.730
22996SOL    HW170995  11.063   1.116   2.655
22996SOL    HW270996  11.032   0.972   2.692
22997SOL     OW70997   3.806   1.715   9.244
22997SOL    HW170998   3.719   1.676   9.256
22997SOL    HW270999   3.838   1.678   9.161
22998SOL     OW71000   5.790   1.114   1.763
22998SOL    HW171001   5.779   1.051   1.834
22998SOL    HW271002   5.877   1.094   1.727
22999SOL     OW71003   7.839   6.027   8.539
22999SOL    HW171004   7.773   5.994   8.478
22999SOL    HW271005   7.806   6.112   8.567
23000SOL     OW71006   8.096   2.849   6.770
23000SOL    HW171007   8.009   2.872   6.739
23000SOL    HW271008   8.138   2.932   6.790
23001SOL     OW71009   5.255   7.055   1.411
23001SOL    HW171010   5.310   6.979   1.429
23001SOL    HW271011   5.303   7.104   1.344
23002SOL     OW71012   3.712   9.844   9.210
23002SOL    HW171013   3.629   9.808   9.241
23002SOL    HW271014   3.742   9.781   9.144
23003SOL     OW71015   5.402   7.305   6.825
23003SOL    HW171016   5.392   7.293   6.730
23003SOL    HW271017   5.390   7.399   6.839
23004SOL     OW71018   8.279   1.961  10.109
23004SOL    HW171019   8.272   1.933  10.017
23004SOL    HW271020   8.206   1.917  10.153
23005SOL     OW71021   9.887   7.492   2.913
23005SOL    HW171022   9.812   7.550   2.900
23005SOL    HW271023   9.917   7.511   3.001
23006SOL     OW71024   3.501   7.261   9.722
23006SOL    HW171025   3.550   7.337   9.692
23006SOL    HW271026   3.548   7.232   9.800
23007SOL     OW71027   4.954   3.024   3.198
23007SOL    HW171028   4.887   2.998   3.261
23007SOL    HW271029   4.909   3.084   3.138
23008SOL     OW71030   4.136   8.268   5.060
23008SOL    HW171031   4.146   8.203   5.130
23008SOL    HW271032   4.223   8.307   5.051
23009SOL     OW71033   8.173   7.739   9.801
23009SOL    HW171034   8.211   7.686   9.731
23009SOL    HW271035   8.219   7.822   9.795
23010SOL     OW71036   2.325   8.878   3.864
23010SOL    HW171037   2.296   8.969   3.861
23010SOL    HW271038   2.248   8.828   3.836
23011SOL     OW71039   9.805   5.100   6.428
23011SOL    HW171040   9.813   5.195   6.419
23011SOL    HW271041   9.720   5.079   6.390
23012SOL     OW71042   8.792   5.344   4.385
23012SOL    HW171043   8.774   5.261   4.429
23012SOL    HW271044   8.820   5.402   4.455
23013SOL     OW71045   8.118   7.420   4.573
23013SOL    HW171046   8.083   7.332   4.556
23013SOL    HW271047   8.158   7.446   4.490
23014SOL     OW71048   8.332   5.956   8.614
23014SOL    HW171049   8.356   5.882   8.670
23014SOL    HW271050   8.416   5.994   8.587
23015SOL     OW71051   0.267   7.047   3.620
23015SOL    HW171052   0.283   6.953   3.632
23015SOL    HW271053   0.211   7.052   3.542
23016SOL     OW71054   5.790   6.983   8.706
23016SOL    HW171055   5.808   7.040   8.631
23016SOL    HW271056   5.875   6.973   8.750
23017SOL     OW71057   8.432   0.379   8.850
23017SOL    HW171058   8.386   0.332   8.919
23017SOL    HW271059   8.364   0.398   8.785
23018SOL     OW71060   1.450   9.692   2.933
23018SOL    HW171061   1.367   9.664   2.971
23018SOL    HW271062   1.477   9.618   2.878
23019SOL     OW71063   7.070   6.665   7.832
23019SOL    HW171064   7.084   6.746   7.783
23019SOL    HW271065   6.979   6.670   7.862
23020SOL     OW71066   6.186   7.583   0.761
23020SOL    HW171067   6.122   7.654   0.768
23020SOL    HW271068   6.147   7.510   0.810
23021SOL     OW71069   4.416   0.088   3.898
23021SOL    HW171070   4.402   0.164   3.953
23021SOL    HW271071   4.508   0.093   3.873
23022SOL     OW71072   6.415   2.299   2.328
23022SOL    HW171073   6.409   2.203   2.336
23022SOL    HW271074   6.438   2.314   2.236
23023SOL     OW71075   0.513   9.931   5.157
23023SOL    HW171076   0.471   9.932   5.243
23023SOL    HW271077   0.600   9.968   5.172
23024SOL     OW71078   2.786  10.426   2.014
23024SOL    HW171079   2.867  10.473   2.035
23024SOL    HW271080   2.724  10.495   1.988
23025SOL     OW71081   9.365   8.258   0.602
23025SOL    HW171082   9.301   8.190   0.624
23025SOL    HW271083   9.420   8.266   0.680
23026SOL     OW71084   4.855   4.749   8.314
23026SOL    HW171085   4.851   4.841   8.288
23026SOL    HW271086   4.784   4.707   8.265
23027SOL     OW71087   7.914  10.795   1.923
23027SOL    HW171088   7.885  10.829   1.838
23027SOL    HW271089   7.977  10.860   1.954
23028SOL     OW71090   4.914   3.599  10.236
23028SOL    HW171091   4.959   3.539  10.176
23028SOL    HW271092   4.823   3.569  10.236
23029SOL     OW71093   9.990   1.944   2.020
23029SOL    HW171094   9.973   2.006   2.090
23029SOL    HW271095  10.044   1.992   1.957
23030SOL     OW71096   3.751   4.993   9.341
23030SOL    HW171097   3.712   4.911   9.371
23030SOL    HW271098   3.735   5.055   9.412
23031SOL     OW71099  10.777   6.120   9.772
23031SOL    HW171100  10.705   6.069   9.735
23031SOL    HW271101  10.842   6.122   9.701
23032SOL     OW71102   5.060   0.149   3.439
23032SOL    HW171103   5.047   0.054   3.442
23032SOL    HW271104   5.147   0.162   3.476
23033SOL     OW71105   5.494   1.193   5.616
23033SOL    HW171106   5.554   1.267   5.622
23033SOL    HW271107   5.465   1.193   5.524
23034SOL     OW71108   7.358   7.265   3.204
23034SOL    HW171109   7.314   7.338   3.162
23034SOL    HW271110   7.295   7.193   3.198
23035SOL     OW71111   1.670   0.633   0.081
23035SOL    HW171112   1.701   0.542   0.074
23035SOL    HW271113   1.592   0.636   0.026
23036SOL     OW71114   0.417   9.503   6.492
23036SOL    HW171115   0.328   9.469   6.489
23036SOL    HW271116   0.422   9.563   6.417
23037SOL     OW71117   5.699   3.062   7.501
23037SOL    HW171118   5.733   3.084   7.588
23037SOL    HW271119   5.650   2.981   7.514
23038SOL     OW71120   6.480   2.847   8.549
23038SOL    HW171121   6.526   2.784   8.493
23038SOL    HW271122   6.418   2.890   8.490
23039SOL     OW71123   7.040  10.474   4.750
23039SOL    HW171124   7.084  10.555   4.725
23039SOL    HW271125   6.953  10.502   4.779
23040SOL     OW71126  10.353   3.268   9.908
23040SOL    HW171127  10.374   3.182   9.944
23040SOL    HW271128  10.296   3.308   9.973
23041SOL     OW71129   4.456   9.795   1.131
23041SOL    HW171130   4.414   9.880   1.144
23041SOL    HW271131   4.539   9.815   1.088
23042SOL     OW71132   7.770   0.526   4.259
23042SOL    HW171133   7.845   0.584   4.243
23042SOL    HW271134   7.694   0.584   4.262
23043SOL     OW71135   9.554   1.368   4.653
23043SOL    HW171136   9.613   1.310   4.702
23043SOL    HW271137   9.608   1.444   4.632
23044SOL     OW71138   4.254  10.951   0.761
23044SOL    HW171139   4.219  11.022   0.815
23044SOL    HW271140   4.210  10.872   0.793
23045SOL     OW71141   6.509  10.781   9.802
23045SOL    HW171142   6.501  10.875   9.821
23045SOL    HW271143   6.422  10.745   9.820
23046SOL     OW71144   2.482   0.979   0.451
23046SOL    HW171145   2.434   0.898   0.468
23046SOL    HW271146   2.564   0.950   0.411
23047SOL     OW71147   0.954  10.625   7.129
23047SOL    HW171148   1.004  10.698   7.166
23047SOL    HW271149   1.021  10.564   7.097
23048SOL     OW71150   5.121   2.093   1.437
23048SOL    HW171151   5.058   2.042   1.488
23048SOL    HW271152   5.069   2.131   1.366
23049SOL     OW71153   5.597   3.702   0.037
23049SOL    HW171154   5.675   3.756   0.048
23049SOL    HW271155   5.533   3.760  -0.003
23050SOL     OW71156   0.380  10.531  10.577
23050SOL    HW171157   0.380  10.440  10.605
23050SOL    HW271158   0.471  10.550  10.555
23051SOL     OW71159   8.587  10.360   3.257
23051SOL    HW171160   8.668  10.308   3.257
23051SOL    HW271161   8.615  10.448   3.282
23052SOL     OW71162   2.729   2.094   5.148
23052SOL    HW171163   2.671   2.166   5.124
23052SOL    HW271164   2.708   2.075   5.239
23053SOL     OW71165   9.037   5.144   0.248
23053SOL    HW171166   9.088   5.212   0.203
23053SOL    HW271167   8.988   5.101   0.177
23054SOL     OW71168   0.244   1.934   4.231
23054SOL    HW171169   0.178   1.888   4.283
23054SOL    HW271170   0.320   1.876   4.232
23055SOL     OW71171   7.864   6.390   4.708
23055SOL    HW171172   7.922   6.388   4.632
23055SOL    HW271173   7.847   6.483   4.723
23056SOL     OW71174   6.529   6.395   7.179
23056SOL    HW171175   6.526   6.394   7.083
23056SOL    HW271176   6.483   6.475   7.204
23057SOL     OW71177   3.800   1.257   9.765
23057SOL    HW171178   3.862   1.317   9.722
23057SOL    HW271179   3.854   1.207   9.827
23058SOL     OW71180   5.062  10.581   8.084
23058SOL    HW171181   5.128  10.634   8.038
23058SOL    HW271182   5.110  10.504   8.115
23059SOL     OW71183   0.055   2.360   8.368
23059SOL    HW171184   0.092   2.371   8.280
23059SOL    HW271185   0.035   2.266   8.374
23060SOL     OW71186   6.663   9.960   6.781
23060SOL    HW171187   6.586   9.910   6.807
23060SOL    HW271188   6.728   9.940   6.848
23061SOL     OW71189   4.572  10.122   0.049
23061SOL    HW171190   4.585  10.091  -0.040
23061SOL    HW271191   4.497  10.181   0.044
23062SOL     OW71192   5.676   1.360   7.580
23062SOL    HW171193   5.770   1.370   7.562
23062SOL    HW271194   5.646   1.294   7.517
23063SOL     OW71195   8.931   9.672   2.023
23063SOL    HW171196   8.888   9.748   2.061
23063SOL    HW271197   8.950   9.697   1.932
23064SOL     OW71198   5.939   7.028   9.625
23064SOL    HW171199   5.885   6.967   9.676
23064SOL    HW271200   5.978   7.086   9.690
23065SOL     OW71201   1.823   1.687   9.298
23065SOL    HW171202   1.801   1.680   9.205
23065SOL    HW271203   1.794   1.604   9.336
23066SOL     OW71204   2.048   9.183   1.894
23066SOL    HW171205   2.115   9.245   1.865
23066SOL    HW271206   2.091   9.132   1.963
23067SOL     OW71207   7.023   6.581  10.465
23067SOL    HW171208   6.985   6.533  10.391
23067SOL    HW271209   7.019   6.673  10.439
23068SOL     OW71210   0.643   1.176   1.500
23068SOL    HW171211   0.718   1.183   1.559
23068SOL    HW271212   0.682   1.156   1.414
23069SOL     OW71213   2.515   0.352   4.626
23069SOL    HW171214   2.501   0.368   4.533
23069SOL    HW271215   2.466   0.421   4.670
23070SOL     OW71216   8.623   6.954   1.458
23070SOL    HW171217   8.653   6.885   1.398
23070SOL    HW271218   8.558   7.003   1.407
23071SOL     OW71219   6.314   2.253   5.679
23071SOL    HW171220   6.287   2.343   5.695
23071SOL    HW271221   6.390   2.240   5.736
23072SOL     OW71222  10.428   0.215   6.728
23072SOL    HW171223  10.369   0.211   6.803
23072SOL    HW271224  10.497   0.275   6.755
23073SOL     OW71225   8.561  10.390   0.823
23073SOL    HW171226   8.489  10.335   0.792
23073SOL    HW271227   8.585  10.352   0.907
23074SOL     OW71228   4.811  10.304   0.016
23074SOL    HW171229   4.839  10.368   0.081
23074SOL    HW271230   4.721  10.282   0.041
23075SOL     OW71231   6.576   5.724   0.357
23075SOL    HW171232   6.515   5.661   0.318
23075SOL    HW271233   6.633   5.671   0.413
23076SOL     OW71234   8.731   7.261   8.235
23076SOL    HW171235   8.813   7.218   8.208
23076SOL    HW271236   8.685   7.194   8.286
23077SOL     OW71237  10.026   8.261   3.100
23077SOL    HW171238   9.965   8.297   3.035
23077SOL    HW271239   9.973   8.248   3.178
23078SOL     OW71240   4.900   1.705   9.120
23078SOL    HW171241   4.880   1.629   9.064
23078SOL    HW271242   4.851   1.689   9.200
23079SOL     OW71243   3.501   0.678   0.153
23079SOL    HW171244   3.588   0.682   0.114
23079SOL    HW271245   3.441   0.678   0.079
23080SOL     OW71246   6.202   2.763   8.444
23080SOL    HW171247   6.236   2.835   8.392
23080SOL    HW271248   6.162   2.805   8.520
23081SOL     OW71249   9.881  11.028   9.605
23081SOL    HW171250   9.808  11.086   9.626
23081SOL    HW271251   9.942  11.039   9.678
23082SOL     OW71252   2.262   4.458   0.296
23082SOL    HW171253   2.300   4.522   0.235
23082SOL    HW271254   2.217   4.395   0.239
23083SOL     OW71255  10.209   2.451   9.795
23083SOL    HW171256  10.127   2.403   9.804
23083SOL    HW271257  10.183   2.539   9.770
23084SOL     OW71258  10.703   2.188  10.257
23084SOL    HW171259  10.774   2.152  10.204
23084SOL    HW271260  10.721   2.282  10.261
23085SOL     OW71261  10.853   3.213   7.168
23085SOL    HW171262  10.878   3.122   7.184
23085SOL    HW271263  10.906   3.240   7.093
23086SOL     OW71264   6.498   0.095   6.253
23086SOL    HW171265   6.502   0.189   6.267
23086SOL    HW271266   6.547   0.081   6.172
23087SOL     OW71267   4.757  10.787   0.676
23087SOL    HW171268   4.840  10.744   0.697
23087SOL    HW271269   4.691  10.718   0.685
23088SOL     OW71270   7.680  10.683   1.157
23088SOL    HW171271   7.702  10.774   1.178
23088SOL    HW271272   7.664  10.641   1.241
23089SOL     OW71273   6.962   9.266   8.232
23089SOL    HW171274   6.925   9.350   8.258
23089SOL    HW271275   7.045   9.288   8.190
23090SOL     OW71276   5.510   2.899   1.786
23090SOL    HW171277   5.568   2.957   1.835
23090SOL    HW271278   5.526   2.812   1.823
23091SOL     OW71279   4.623  10.554   9.016
23091SOL    HW171280   4.534  10.583   8.995
23091SOL    HW271281   4.666  10.545   8.931
23092SOL     OW71282   9.118   6.349   7.918
23092SOL    HW171283   9.072   6.318   7.995
23092SOL    HW271284   9.049   6.385   7.862
23093SOL     OW71285   4.206   1.744   9.464
23093SOL    HW171286   4.237   1.714   9.378
23093SOL    HW271287   4.111   1.745   9.456
23094SOL     OW71288   6.057   2.124   6.232
23094SOL    HW171289   6.139   2.115   6.280
23094SOL    HW271290   6.083   2.158   6.146
23095SOL     OW71291  10.788   9.764   8.894
23095SOL    HW171292  10.869   9.719   8.869
23095SOL    HW271293  10.729   9.751   8.819
23096SOL     OW71294   1.328   9.854   4.071
23096SOL    HW171295   1.423   9.859   4.057
23096SOL    HW271296   1.293   9.820   3.988
23097SOL     OW71297   8.420   0.282   0.837
23097SOL    HW171298   8.387   0.358   0.790
23097SOL    HW271299   8.511   0.303   0.857
23098SOL     OW71300   7.814   4.179   9.112
23098SOL    HW171301   7.754   4.104   9.115
23098SOL    HW271302   7.773   4.245   9.168
23099SOL     OW71303   5.480   2.152   7.686
23099SOL    HW171304   5.550   2.215   7.666
23099SOL    HW271305   5.410   2.204   7.725
23100SOL     OW71306  10.922   7.797   3.483
23100SOL    HW171307  10.894   7.857   3.551
23100SOL    HW271308  10.927   7.712   3.526
23101SOL     OW71309   8.254   9.413   8.030
23101SOL    HW171310   8.329   9.469   8.051
23101SOL    HW271311   8.292   9.339   7.982
23102SOL     OW71312   7.611   2.058   7.691
23102SOL    HW171313   7.653   1.972   7.695
23102SOL    HW271314   7.638   2.102   7.771
23103SOL     OW71315   8.926  10.795   1.215
23103SOL    HW171316   8.898  10.704   1.212
23103SOL    HW271317   8.881  10.836   1.141
23104SOL     OW71318   0.842   8.908   3.859
23104SOL    HW171319   0.796   8.945   3.934
23104SOL    HW271320   0.905   8.975   3.833
23105SOL     OW71321   7.384   2.114   9.551
23105SOL    HW171322   7.342   2.092   9.468
23105SOL    HW271323   7.405   2.029   9.590
23106SOL     OW71324   2.980   8.588   0.386
23106SOL    HW171325   2.988   8.603   0.292
23106SOL    HW271326   2.892   8.619   0.408
23107SOL     OW71327   8.659   1.625   8.304
23107SOL    HW171328   8.615   1.606   8.387
23107SOL    HW271329   8.628   1.712   8.280
23108SOL     OW71330   5.436   1.291   9.948
23108SOL    HW171331   5.438   1.365   9.887
23108SOL    HW271332   5.527   1.259   9.950
23109SOL     OW71333  10.350   9.962   2.371
23109SOL    HW171334  10.404  10.032   2.333
23109SOL    HW271335  10.408   9.918   2.434
23110SOL     OW71336   5.501   2.977   7.750
23110SOL    HW171337   5.595   2.974   7.767
23110SOL    HW271338   5.489   3.056   7.697
23111SOL     OW71339   8.784   2.434   8.144
23111SOL    HW171340   8.846   2.375   8.100
23111SOL    HW271341   8.741   2.481   8.072
23112SOL     OW71342   6.921   6.251   4.917
23112SOL    HW171343   6.961   6.259   4.830
23112SOL    HW271344   6.907   6.157   4.927
23113SOL     OW71345   8.091   8.703   0.722
23113SOL    HW171346   8.103   8.731   0.631
23113SOL    HW271347   8.004   8.662   0.723
23114SOL     OW71348   1.661   5.393   4.269
23114SOL    HW171349   1.670   5.486   4.286
23114SOL    HW271350   1.622   5.388   4.181
23115SOL     OW71351   8.614   3.593   3.391
23115SOL    HW171352   8.616   3.603   3.295
23115SOL    HW271353   8.528   3.626   3.417
23116SOL     OW71354   4.358  10.704   7.556
23116SOL    HW171355   4.387  10.662   7.637
23116SOL    HW271356   4.339  10.794   7.581
23117SOL     OW71357   6.318   3.400  10.884
23117SOL    HW171358   6.318   3.370  10.793
23117SOL    HW271359   6.390   3.351  10.925
23118SOL     OW71360   8.304   0.726  10.077
23118SOL    HW171361   8.373   0.792  10.082
23118SOL    HW271362   8.222   0.775  10.084
23119SOL     OW71363   9.167   9.749   9.717
23119SOL    HW171364   9.171   9.844   9.725
23119SOL    HW271365   9.085   9.732   9.671
23120SOL     OW71366   2.058   4.749   3.307
23120SOL    HW171367   2.034   4.758   3.399
23120SOL    HW271368   2.116   4.673   3.305
23121SOL     OW71369   9.013   3.213   0.230
23121SOL    HW171370   8.931   3.249   0.196
23121SOL    HW271371   9.081   3.250   0.173
23122SOL     OW71372   7.770   8.262   8.262
23122SOL    HW171373   7.758   8.262   8.357
23122SOL    HW271374   7.825   8.185   8.245
23123SOL     OW71375   6.269   1.169   2.617
23123SOL    HW171376   6.205   1.098   2.605
23123SOL    HW271377   6.350   1.123   2.640
23124SOL     OW71378   7.216   0.999   3.688
23124SOL    HW171379   7.284   1.065   3.694
23124SOL    HW271380   7.134   1.048   3.691
23125SOL     OW71381   6.688   3.374  10.018
23125SOL    HW171382   6.729   3.333   9.941
23125SOL    HW271383   6.619   3.313  10.044
23126SOL     OW71384   5.432   7.227   0.931
23126SOL    HW171385   5.478   7.310   0.923
23126SOL    HW271386   5.370   7.227   0.858
23127SOL     OW71387  10.709   2.325  10.558
23127SOL    HW171388  10.734   2.417  10.557
23127SOL    HW271389  10.783   2.279  10.519
23128SOL     OW71390  10.650   0.210   2.106
23128SOL    HW171391  10.590   0.204   2.180
23128SOL    HW271392  10.618   0.283   2.054
23129SOL     OW71393   7.079   4.940   2.629
23129SOL    HW171394   7.099   4.847   2.639
23129SOL    HW271395   7.161   4.984   2.652
23130SOL     OW71396   9.054   9.886   8.829
23130SOL    HW171397   9.062   9.893   8.734
23130SOL    HW271398   9.038   9.975   8.859
23131SOL     OW71399   9.669   5.796   1.991
23131SOL    HW171400   9.688   5.767   1.901
23131SOL    HW271401   9.574   5.790   1.998
23132SOL     OW71402   6.036   1.227   4.888
23132SOL    HW171403   5.949   1.265   4.875
23132SOL    HW271404   6.024   1.162   4.957
23133SOL     OW71405  10.601   9.287  10.198
23133SOL    HW171406  10.693   9.289  10.224
23133SOL    HW271407  10.552   9.292  10.280
23134SOL     OW71408   9.882   2.265   8.633
23134SOL    HW171409   9.810   2.297   8.687
23134SOL    HW271410   9.849   2.272   8.543
23135SOL     OW71411   9.176   8.146   8.936
23135SOL    HW171412   9.239   8.079   8.906
23135SOL    HW271413   9.222   8.229   8.925
23136SOL     OW71414   4.310   3.066   1.525
23136SOL    HW171415   4.344   2.978   1.542
23136SOL    HW271416   4.237   3.076   1.586
23137SOL     OW71417   9.641   4.869   4.890
23137SOL    HW171418   9.572   4.806   4.868
23137SOL    HW271419   9.653   4.920   4.810
23138SOL     OW71420   4.943   1.039   6.661
23138SOL    HW171421   5.029   1.000   6.644
23138SOL    HW271422   4.916   1.002   6.745
23139SOL     OW71423  11.090   9.456   1.028
23139SOL    HW171424  11.085   9.464   0.932
23139SOL    HW271425  11.060   9.540   1.061
23140SOL     OW71426   7.217   8.525   8.640
23140SOL    HW171427   7.225   8.565   8.726
23140SOL    HW271428   7.307   8.517   8.609
23141SOL     OW71429  -0.001  11.065   7.657
23141SOL    HW171430   0.029  10.999   7.594
23141SOL    HW271431   0.002  11.020   7.741
23142SOL     OW71432   6.568   5.826   3.190
23142SOL    HW171433   6.505   5.756   3.207
23142SOL    HW271434   6.625   5.826   3.266
23143SOL     OW71435   1.899   0.736   2.207
23143SOL    HW171436   1.995   0.740   2.208
23143SOL    HW271437   1.871   0.814   2.255
23144SOL     OW71438   6.618   6.711   4.863
23144SOL    HW171439   6.538   6.759   4.884
23144SOL    HW271440   6.598   6.620   4.885
23145SOL     OW71441   6.056   3.391   1.382
23145SOL    HW171442   6.003   3.429   1.312
23145SOL    HW271443   6.079   3.303   1.349
23146SOL     OW71444   8.246   1.350   6.212
23146SOL    HW171445   8.340   1.338   6.224
23146SOL    HW271446   8.236   1.366   6.118
23147SOL     OW71447   8.599   2.338   0.236
23147SOL    HW171448   8.667   2.271   0.244
23147SOL    HW271449   8.520   2.289   0.213
23148SOL     OW71450   4.663   7.637   5.189
23148SOL    HW171451   4.569   7.638   5.175
23148SOL    HW271452   4.673   7.621   5.283
23149SOL     OW71453   1.254   3.583   1.130
23149SOL    HW171454   1.163   3.552   1.131
23149SOL    HW271455   1.248   3.676   1.107
23150SOL     OW71456   0.459   9.685   2.680
23150SOL    HW171457   0.442   9.596   2.648
23150SOL    HW271458   0.534   9.715   2.629
23151SOL     OW71459   2.371   1.270   4.268
23151SOL    HW171460   2.432   1.217   4.320
23151SOL    HW271461   2.312   1.206   4.228
23152SOL     OW71462   6.008   3.764   3.438
23152SOL    HW171463   5.941   3.723   3.382
23152SOL    HW271464   6.029   3.696   3.503
23153SOL     OW71465  10.166  10.936  10.436
23153SOL    HW171466  10.137  10.846  10.448
23153SOL    HW271467  10.126  10.984  10.508
23154SOL     OW71468   5.601   7.723   2.648
23154SOL    HW171469   5.528   7.783   2.662
23154SOL    HW271470   5.565   7.653   2.594
23155SOL     OW71471   3.791   5.196   2.446
23155SOL    HW171472   3.751   5.128   2.500
23155SOL    HW271473   3.857   5.149   2.393
23156SOL     OW71474  10.566   2.406   0.129
23156SOL    HW171475  10.636   2.426   0.067
23156SOL    HW271476  10.550   2.312   0.118
23157SOL     OW71477   0.982  10.089   4.500
23157SOL    HW171478   0.983  10.161   4.437
23157SOL    HW271479   0.935  10.123   4.576
23158SOL     OW71480   9.726   0.116   6.124
23158SOL    HW171481   9.725   0.128   6.219
23158SOL    HW271482   9.818   0.099   6.103
23159SOL     OW71483   5.192   3.288   2.422
23159SOL    HW171484   5.244   3.240   2.357
23159SOL    HW271485   5.109   3.305   2.378
23160SOL     OW71486   3.854   3.939   1.253
23160SOL    HW171487   3.763   3.953   1.226
23160SOL    HW271488   3.890   3.881   1.186
23161SOL     OW71489   0.818   0.281   1.234
23161SOL    HW171490   0.838   0.315   1.147
23161SOL    HW271491   0.872   0.333   1.293
23162SOL     OW71492   0.305   3.303  10.555
23162SOL    HW171493   0.251   3.327  10.630
23162SOL    HW271494   0.281   3.366  10.487
23163SOL     OW71495   8.027  10.932   9.831
23163SOL    HW171496   8.010  10.955   9.922
23163SOL    HW271497   7.993  11.006   9.780
23164SOL     OW71498   1.960   5.518   1.281
23164SOL    HW171499   2.011   5.501   1.360
23164SOL    HW271500   1.919   5.433   1.261
23165SOL     OW71501  10.813   6.805   7.844
23165SOL    HW171502  10.870   6.760   7.782
23165SOL    HW271503  10.735   6.826   7.793
23166SOL     OW71504   0.772   0.113   1.011
23166SOL    HW171505   0.815   0.137   1.093
23166SOL    HW271506   0.725   0.032   1.031
23167SOL     OW71507   4.677   7.530   9.753
23167SOL    HW171508   4.655   7.450   9.704
23167SOL    HW271509   4.772   7.526   9.763
23168SOL     OW71510   8.062   1.923   4.550
23168SOL    HW171511   7.985   1.949   4.600
23168SOL    HW271512   8.120   1.999   4.554
23169SOL     OW71513   8.724   3.454   1.553
23169SOL    HW171514   8.806   3.474   1.507
23169SOL    HW271515   8.752   3.426   1.640
23170SOL     OW71516   1.954   3.382   0.704
23170SOL    HW171517   2.034   3.379   0.651
23170SOL    HW271518   1.906   3.303   0.679
23171SOL     OW71519   0.753   2.951   3.208
23171SOL    HW171520   0.662   2.979   3.198
23171SOL    HW271521   0.763   2.880   3.143
23172SOL     OW71522   5.879  10.599   7.398
23172SOL    HW171523   5.973  10.597   7.418
23172SOL    HW271524   5.871  10.661   7.325
23173SOL     OW71525   7.152   1.160   8.790
23173SOL    HW171526   7.091   1.144   8.862
23173SOL    HW271527   7.179   1.072   8.761
23174SOL     OW71528   1.988   7.153   0.228
23174SOL    HW171529   2.050   7.224   0.213
23174SOL    HW271530   2.029   7.076   0.188
23175SOL     OW71531   7.424  10.747   1.021
23175SOL    HW171532   7.455  10.657   1.031
23175SOL    HW271533   7.463  10.777   0.939
23176SOL     OW71534  10.199   6.964   8.787
23176SOL    HW171535  10.147   7.023   8.733
23176SOL    HW271536  10.277   6.946   8.734
23177SOL     OW71537   0.359  10.401   9.751
23177SOL    HW171538   0.298  10.342   9.796
23177SOL    HW271539   0.438  10.349   9.739
23178SOL     OW71540  10.957   9.299   8.161
23178SOL    HW171541  10.883   9.238   8.162
23178SOL    HW271542  10.917   9.385   8.166
23179SOL     OW71543  10.553  10.673   0.447
23179SOL    HW171544  10.628  10.727   0.423
23179SOL    HW271545  10.506  10.725   0.512
23180SOL     OW71546   2.259   3.362   1.841
23180SOL    HW171547   2.164   3.369   1.843
23180SOL    HW271548   2.290   3.433   1.897
23181SOL     OW71549   6.062  10.260   0.739
23181SOL    HW171550   6.108  10.282   0.658
23181SOL    HW271551   6.102  10.316   0.805
23182SOL     OW71552   5.711   1.256   2.431
23182SOL    HW171553   5.801   1.262   2.462
23182SOL    HW271554   5.680   1.346   2.428
23183SOL     OW71555   0.626   3.374   4.333
23183SOL    HW171556   0.675   3.361   4.414
23183SOL    HW271557   0.671   3.318   4.269
23184SOL     OW71558  10.640   1.190   4.797
23184SOL    HW171559  10.594   1.114   4.760
23184SOL    HW271560  10.733   1.167   4.791
23185SOL     OW71561  10.351   1.413   6.487
23185SOL    HW171562  10.302   1.422   6.568
23185SOL    HW271563  10.381   1.501   6.466
23186SOL     OW71564  10.366  10.682   5.239
23186SOL    HW171565  10.407  10.606   5.280
23186SOL    HW271566  10.396  10.678   5.148
23187SOL     OW71567   0.291   2.377   5.000
23187SOL    HW171568   0.252   2.382   4.912
23187SOL    HW271569   0.269   2.460   5.041
23188SOL     OW71570   1.355   9.230   6.782
23188SOL    HW171571   1.377   9.223   6.875
23188SOL    HW271572   1.269   9.189   6.774
23189SOL     OW71573   4.836   5.643   0.009
23189SOL    HW171574   4.746   5.657   0.038
23189SOL    HW271575   4.889   5.660   0.087
23190SOL     OW71576   6.887   9.610   0.335
23190SOL    HW171577   6.862   9.633   0.245
23190SOL    HW271578   6.804   9.599   0.381
23191SOL     OW71579   4.812   8.462   2.577
23191SOL    HW171580   4.865   8.440   2.500
23191SOL    HW271581   4.788   8.377   2.614
23192SOL     OW71582   9.861   2.811   9.429
23192SOL    HW171583   9.897   2.792   9.515
23192SOL    HW271584   9.767   2.817   9.443
23193SOL     OW71585   1.397   4.834  10.757
23193SOL    HW171586   1.476   4.866  10.800
23193SOL    HW271587   1.325   4.871  10.808
23194SOL     OW71588   8.112   3.552   8.260
23194SOL    HW171589   8.040   3.489   8.260
23194SOL    HW271590   8.187   3.502   8.293
23195SOL     OW71591   6.886   3.964   0.357
23195SOL    HW171592   6.833   4.022   0.302
23195SOL    HW271593   6.957   3.935   0.299
23196SOL     OW71594   3.667  10.137   3.936
23196SOL    HW171595   3.596  10.200   3.945
23196SOL    HW271596   3.633  10.056   3.975
23197SOL     OW71597  10.151   6.551   2.520
23197SOL    HW171598  10.062   6.517   2.527
23197SOL    HW271599  10.156   6.587   2.431
23198SOL     OW71600   3.558   1.555   3.853
23198SOL    HW171601   3.516   1.490   3.797
23198SOL    HW271602   3.498   1.566   3.926
23199SOL     OW71603   2.969  10.886   6.950
23199SOL    HW171604   2.906  10.934   7.004
23199SOL    HW271605   3.006  10.952   6.891
23200SOL     OW71606   3.591   0.023   9.372
23200SOL    HW171607   3.518   0.046   9.429
23200SOL    HW271608   3.560  -0.053   9.322
23201SOL     OW71609   6.927   6.298   1.989
23201SOL    HW171610   6.979   6.362   1.941
23201SOL    HW271611   6.971   6.214   1.972
23202SOL     OW71612   3.853   9.517   9.557
23202SOL    HW171613   3.947   9.530   9.543
23202SOL    HW271614   3.816   9.605   9.556
23203SOL     OW71615   8.341   3.090   0.287
23203SOL    HW171616   8.380   3.101   0.200
23203SOL    HW271617   8.249   3.069   0.270
23204SOL     OW71618   7.695   9.316   2.615
23204SOL    HW171619   7.612   9.277   2.642
23204SOL    HW271620   7.691   9.406   2.646
23205SOL     OW71621   9.753  10.839   3.619
23205SOL    HW171622   9.688  10.878   3.560
23205SOL    HW271623   9.831  10.894   3.609
23206SOL     OW71624   9.535   0.243   5.983
23206SOL    HW171625   9.586   0.179   6.033
23206SOL    HW271626   9.524   0.202   5.897
23207SOL     OW71627   5.142   0.800   6.724
23207SOL    HW171628   5.191   0.872   6.763
23207SOL    HW271629   5.176   0.793   6.635
23208SOL     OW71630   5.030   3.704   6.811
23208SOL    HW171631   5.057   3.726   6.900
23208SOL    HW271632   5.042   3.609   6.805
23209SOL     OW71633   8.579   3.787   6.217
23209SOL    HW171634   8.564   3.778   6.122
23209SOL    HW271635   8.514   3.850   6.246
23210SOL     OW71636   8.701   6.742   1.310
23210SOL    HW171637   8.796   6.727   1.313
23210SOL    HW271638   8.664   6.670   1.361
23211SOL     OW71639  10.904  10.355   3.985
23211SOL    HW171640  10.905  10.326   3.893
23211SOL    HW271641  10.907  10.450   3.980
23212SOL     OW71642   5.047   4.517   5.931
23212SOL    HW171643   5.118   4.538   5.870
23212SOL    HW271644   4.971   4.565   5.897
23213SOL     OW71645   8.951   2.521   2.682
23213SOL    HW171646   8.875   2.554   2.633
23213SOL    HW271647   8.913   2.475   2.757
23214SOL     OW71648   4.347   7.214  10.256
23214SOL    HW171649   4.370   7.191  10.165
23214SOL    HW271650   4.258   7.180  10.267
23215SOL     OW71651   8.722  10.954   4.497
23215SOL    HW171652   8.746  11.044   4.475
23215SOL    HW271653   8.806  10.908   4.507
23216SOL     OW71654   0.339   5.403   9.130
23216SOL    HW171655   0.326   5.345   9.055
23216SOL    HW271656   0.427   5.438   9.118
23217SOL     OW71657   8.362   1.158   4.884
23217SOL    HW171658   8.336   1.242   4.920
23217SOL    HW271659   8.446   1.139   4.925
23218SOL     OW71660   8.451   1.742   6.962
23218SOL    HW171661   8.416   1.702   7.041
23218SOL    HW271662   8.404   1.825   6.953
23219SOL     OW71663  10.409   3.192   9.653
23219SOL    HW171664  10.349   3.118   9.640
23219SOL    HW271665  10.383   3.229   9.737
23220SOL     OW71666   5.508  10.777   3.638
23220SOL    HW171667   5.523  10.835   3.712
23220SOL    HW271668   5.417  10.748   3.648
23221SOL     OW71669   4.766   1.895   4.504
23221SOL    HW171670   4.827   1.873   4.433
23221SOL    HW271671   4.690   1.931   4.459
23222SOL     OW71672   7.410   3.925   3.365
23222SOL    HW171673   7.373   3.906   3.451
23222SOL    HW271674   7.499   3.890   3.369
23223SOL     OW71675   6.782   2.748   8.903
23223SOL    HW171676   6.712   2.794   8.857
23223SOL    HW271677   6.761   2.655   8.891
23224SOL     OW71678   8.039   5.638   0.118
23224SOL    HW171679   8.089   5.599   0.047
23224SOL    HW271680   7.951   5.650   0.082
23225SOL     OW71681   0.382   1.379   9.428
23225SOL    HW171682   0.338   1.372   9.512
23225SOL    HW271683   0.350   1.461   9.391
23226SOL     OW71684   6.237   8.430  10.420
23226SOL    HW171685   6.286   8.508  10.444
23226SOL    HW271686   6.288   8.358  10.457
23227SOL     OW71687   8.791   1.052   0.710
23227SOL    HW171688   8.853   1.080   0.642
23227SOL    HW271689   8.717   1.112   0.701
23228SOL     OW71690   8.540  10.215   1.870
23228SOL    HW171691   8.514  10.133   1.828
23228SOL    HW271692   8.624  10.236   1.829
23229SOL     OW71693   3.786   7.895   6.761
23229SOL    HW171694   3.741   7.823   6.717
23229SOL    HW271695   3.878   7.869   6.760
23230SOL     OW71696   4.443   2.153   4.799
23230SOL    HW171697   4.352   2.165   4.826
23230SOL    HW271698   4.449   2.060   4.777
23231SOL     OW71699   8.655   1.670  10.968
23231SOL    HW171700   8.600   1.747  10.973
23231SOL    HW271701   8.706   1.682  10.888
23232SOL     OW71702   2.053   3.473   8.287
23232SOL    HW171703   2.032   3.565   8.298
23232SOL    HW271704   2.137   3.462   8.332
23233SOL     OW71705   5.674   0.113   7.754
23233SOL    HW171706   5.669   0.201   7.718
23233SOL    HW271707   5.703   0.059   7.680
23234SOL     OW71708  10.900   2.088  10.796
23234SOL    HW171709  10.994   2.071  10.794
23234SOL    HW271710  10.893   2.180  10.820
23235SOL     OW71711   3.301  10.629   1.382
23235SOL    HW171712   3.382  10.631   1.433
23235SOL    HW271713   3.244  10.693   1.424
23236SOL     OW71714   9.093   6.691   6.427
23236SOL    HW171715   9.180   6.726   6.447
23236SOL    HW271716   9.108   6.597   6.415
23237SOL     OW71717   9.520   6.789   2.425
23237SOL    HW171718   9.551   6.871   2.462
23237SOL    HW271719   9.519   6.804   2.330
23238SOL     OW71720   3.212   5.144   2.685
23238SOL    HW171721   3.260   5.189   2.754
23238SOL    HW271722   3.151   5.086   2.731
23239SOL     OW71723   9.504   7.270   4.022
23239SOL    HW171724   9.486   7.357   4.056
23239SOL    HW271725   9.466   7.210   4.086
23240SOL     OW71726   3.711   6.164   3.045
23240SOL    HW171727   3.779   6.122   3.098
23240SOL    HW271728   3.643   6.097   3.036
23241SOL     OW71729   6.259   0.895   2.913
23241SOL    HW171730   6.196   0.958   2.880
23241SOL    HW271731   6.206   0.820   2.940
23242SOL     OW71732   7.103   9.789   8.002
23242SOL    HW171733   7.048   9.826   8.071
23242SOL    HW271734   7.169   9.856   7.986
23243SOL     OW71735   6.038   2.460   0.669
23243SOL    HW171736   6.123   2.422   0.693
23243SOL    HW271737   5.994   2.391   0.619
23244SOL     OW71738   5.939   0.959   6.530
23244SOL    HW171739   5.863   1.002   6.569
23244SOL    HW271740   5.907   0.873   6.504
23245SOL     OW71741   1.022  11.027   9.715
23245SOL    HW171742   1.055  11.027   9.625
23245SOL    HW271743   1.097  10.999   9.767
23246SOL     OW71744   0.661   9.793   1.083
23246SOL    HW171745   0.588   9.732   1.095
23246SOL    HW271746   0.725   9.744   1.030
23247SOL     OW71747   3.545   7.036   1.300
23247SOL    HW171748   3.526   6.961   1.357
23247SOL    HW271749   3.614   7.084   1.345
23248SOL     OW71750   4.105  10.460   7.644
23248SOL    HW171751   4.193  10.423   7.655
23248SOL    HW271752   4.046  10.391   7.674
23249SOL     OW71753   9.298   2.080   5.290
23249SOL    HW171754   9.242   2.002   5.292
23249SOL    HW271755   9.245   2.149   5.330
23250SOL     OW71756   5.123   6.969  10.766
23250SOL    HW171757   5.202   6.999  10.721
23250SOL    HW271758   5.150   6.889  10.811
23251SOL     OW71759   7.946   4.256  10.365
23251SOL    HW171760   7.930   4.307  10.285
23251SOL    HW271761   8.041   4.241  10.365
23252SOL     OW71762   5.277   0.022   4.857
23252SOL    HW171763   5.200   0.071   4.886
23252SOL    HW271764   5.327   0.005   4.937
23253SOL     OW71765   4.366   0.627   6.240
23253SOL    HW171766   4.363   0.561   6.170
23253SOL    HW271767   4.436   0.687   6.212
23254SOL     OW71768   8.318   0.111   2.041
23254SOL    HW171769   8.350   0.198   2.019
23254SOL    HW271770   8.235   0.103   1.994
23255SOL     OW71771   0.877   3.997   7.542
23255SOL    HW171772   0.864   4.030   7.453
23255SOL    HW271773   0.894   3.903   7.530
23256SOL     OW71774  10.248   3.865   1.004
23256SOL    HW171775  10.183   3.804   1.039
23256SOL    HW271776  10.249   3.847   0.910
23257SOL     OW71777   6.330   1.319   1.358
23257SOL    HW171778   6.322   1.411   1.380
23257SOL    HW271779   6.340   1.318   1.262
23258SOL     OW71780   7.281   3.459   8.638
23258SOL    HW171781   7.336   3.382   8.621
23258SOL    HW271782   7.195   3.422   8.657
23259SOL     OW71783   9.560   7.180   7.794
23259SOL    HW171784   9.509   7.184   7.713
23259SOL    HW271785   9.546   7.265   7.835
23260SOL     OW71786   5.395   2.883   3.555
23260SOL    HW171787   5.336   2.958   3.563
23260SOL    HW271788   5.481   2.917   3.579
23261SOL     OW71789   5.844   4.239   8.818
23261SOL    HW171790   5.939   4.248   8.824
23261SOL    HW271791   5.829   4.209   8.728
23262SOL     OW71792   9.926   7.572   3.167
23262SOL    HW171793   9.963   7.632   3.231
23262SOL    HW271794   9.846   7.539   3.208
23263SOL     OW71795   7.033   0.001   8.241
23263SOL    HW171796   6.956   0.052   8.218
23263SOL    HW271797   7.084  -0.003   8.160
23264SOL     OW71798   0.928   6.360   0.417
23264SOL    HW171799   0.966   6.272   0.427
23264SOL    HW271800   0.857   6.348   0.354
23265SOL     OW71801   9.139   7.122   1.829
23265SOL    HW171802   9.096   7.190   1.881
23265SOL    HW271803   9.227   7.114   1.867
23266SOL     OW71804  10.172   7.394   1.364
23266SOL    HW171805  10.113   7.462   1.396
23266SOL    HW271806  10.237   7.383   1.433
23267SOL     OW71807   6.652   2.380   4.205
23267SOL    HW171808   6.643   2.437   4.128
23267SOL    HW271809   6.682   2.296   4.169
23268SOL     OW71810   1.481   8.080   4.669
23268SOL    HW171811   1.431   8.038   4.598
23268SOL    HW271812   1.571   8.052   4.654
23269SOL     OW71813   7.833   3.142   7.117
23269SOL    HW171814   7.810   3.105   7.032
23269SOL    HW271815   7.779   3.221   7.124
23270SOL     OW71816  10.821   5.090   3.240
23270SOL    HW171817  10.782   5.077   3.326
23270SOL    HW271818  10.750   5.074   3.178
23271SOL     OW71819   5.847   3.181   1.400
23271SOL    HW171820   5.800   3.262   1.418
23271SOL    HW271821   5.869   3.145   1.486
23272SOL     OW71822   9.558   2.102   5.350
23272SOL    HW171823   9.618   2.058   5.289
23272SOL    HW271824   9.477   2.113   5.299
23273SOL     OW71825   9.410   7.584   8.725
23273SOL    HW171826   9.484   7.545   8.772
23273SOL    HW271827   9.444   7.602   8.637
23274SOL     OW71828   2.700   4.881  10.925
23274SOL    HW171829   2.728   4.969  10.899
23274SOL    HW271830   2.613   4.871  10.886
23275SOL     OW71831   7.014   6.078   3.233
23275SOL    HW171832   7.069   6.155   3.219
23275SOL    HW271833   7.061   6.027   3.299
23276SOL     OW71834   1.624   9.168   8.318
23276SOL    HW171835   1.605   9.192   8.408
23276SOL    HW271836   1.621   9.250   8.269
23277SOL     OW71837   5.727   0.533   2.095
23277SOL    HW171838   5.775   0.594   2.150
23277SOL    HW271839   5.709   0.458   2.151
23278SOL     OW71840   5.404   0.664  10.150
23278SOL    HW171841   5.349   0.717  10.092
23278SOL    HW271842   5.452   0.606  10.091
23279SOL     OW71843   3.287   5.559   6.233
23279SOL    HW171844   3.378   5.579   6.257
23279SOL    HW271845   3.247   5.527   6.313
23280SOL     OW71846   1.934   3.378   5.739
23280SOL    HW171847   1.908   3.383   5.647
23280SOL    HW271848   1.971   3.464   5.758
23281SOL     OW71849  10.942   4.190   5.633
23281SOL    HW171850  10.874   4.253   5.655
23281SOL    HW271851  10.894   4.111   5.606
23282SOL     OW71852   6.228   2.666   7.345
23282SOL    HW171853   6.154   2.665   7.285
23282SOL    HW271854   6.191   2.643   7.430
23283SOL     OW71855   7.802   1.120   8.930
23283SOL    HW171856   7.841   1.206   8.916
23283SOL    HW271857   7.768   1.095   8.844
23284SOL     OW71858   6.783  10.538   9.761
23284SOL    HW171859   6.700  10.561   9.719
23284SOL    HW271860   6.814  10.461   9.713
23285SOL     OW71861   3.548   8.561   0.081
23285SOL    HW171862   3.562   8.547   0.175
23285SOL    HW271863   3.632   8.595   0.050
23286SOL     OW71864  10.198   4.134   1.009
23286SOL    HW171865  10.238   4.166   0.928
23286SOL    HW271866  10.187   4.040   0.995
23287SOL     OW71867   8.063   2.918   9.005
23287SOL    HW171868   8.047   2.961   9.089
23287SOL    HW271869   8.106   2.835   9.028
23288SOL     OW71870  10.654   8.639   1.793
23288SOL    HW171871  10.704   8.613   1.716
23288SOL    HW271872  10.696   8.719   1.823
23289SOL     OW71873   3.497   7.625   2.146
23289SOL    HW171874   3.406   7.597   2.133
23289SOL    HW271875   3.548   7.544   2.140
23290SOL     OW71876   1.186   8.995   6.001
23290SOL    HW171877   1.244   9.052   6.050
23290SOL    HW271878   1.245   8.935   5.956
23291SOL     OW71879   6.003   2.712   1.790
23291SOL    HW171880   6.025   2.767   1.864
23291SOL    HW271881   6.088   2.689   1.752
23292SOL     OW71882   8.223  10.760   2.005
23292SOL    HW171883   8.182  10.846   2.016
23292SOL    HW271884   8.264  10.742   2.089
23293SOL     OW71885   1.600   1.130   0.194
23293SOL    HW171886   1.588   1.060   0.258
23293SOL    HW271887   1.600   1.210   0.246
23294SOL     OW71888   8.327   9.897   1.070
23294SOL    HW171889   8.378   9.933   0.997
23294SOL    HW271890   8.295   9.973   1.118
23295SOL     OW71891   3.930   6.637   3.021
23295SOL    HW171892   3.939   6.588   2.939
23295SOL    HW271893   3.847   6.607   3.057
23296SOL     OW71894   7.934   1.044   2.599
23296SOL    HW171895   7.846   1.073   2.574
23296SOL    HW271896   7.971   1.008   2.518
23297SOL     OW71897   9.555   3.414  10.305
23297SOL    HW171898   9.601   3.338  10.269
23297SOL    HW271899   9.475   3.377  10.343
23298SOL     OW71900   5.295   7.068   5.822
23298SOL    HW171901   5.306   7.124   5.898
23298SOL    HW271902   5.345   7.111   5.753
23299SOL     OW71903   5.965   7.878   6.097
23299SOL    HW171904   5.883   7.886   6.048
23299SOL    HW271905   5.959   7.945   6.165
23300SOL     OW71906   2.708   8.329  10.948
23300SOL    HW171907   2.780   8.366  10.896
23300SOL    HW271908   2.648   8.402  10.962
23301SOL     OW71909   2.058   3.475   9.454
23301SOL    HW171910   2.116   3.400   9.470
23301SOL    HW271911   1.991   3.441   9.394
23302SOL     OW71912   2.194   1.292   3.050
23302SOL    HW171913   2.109   1.294   3.093
23302SOL    HW271914   2.257   1.284   3.121
23303SOL     OW71915   2.189   8.810   6.806
23303SOL    HW171916   2.260   8.844   6.860
23303SOL    HW271917   2.231   8.788   6.722
23304SOL     OW71918   2.486   2.811   0.170
23304SOL    HW171919   2.480   2.738   0.233
23304SOL    HW271920   2.571   2.851   0.188
23305SOL     OW71921   7.323   0.914   5.315
23305SOL    HW171922   7.347   0.821   5.314
23305SOL    HW271923   7.240   0.918   5.268
23306SOL     OW71924   6.080   4.010   2.970
23306SOL    HW171925   6.133   4.020   2.891
23306SOL    HW271926   6.095   3.919   2.997
23307SOL     OW71927   8.982   7.862  10.335
23307SOL    HW171928   8.905   7.814  10.304
23307SOL    HW271929   9.023   7.895  10.255
23308SOL     OW71930   0.049   1.341   6.817
23308SOL    HW171931   0.067   1.400   6.890
23308SOL    HW271932  -0.046   1.344   6.806
23309SOL     OW71933   7.668   4.102   6.781
23309SOL    HW171934   7.698   4.191   6.766
23309SOL    HW271935   7.576   4.102   6.753
23310SOL     OW71936   4.010   0.868   3.712
23310SOL    HW171937   3.963   0.878   3.629
23310SOL    HW271938   4.057   0.785   3.703
23311SOL     OW71939   8.964   4.617   4.167
23311SOL    HW171940   8.992   4.640   4.078
23311SOL    HW271941   9.022   4.667   4.224
23312SOL     OW71942   3.460  10.697   0.453
23312SOL    HW171943   3.463  10.727   0.544
23312SOL    HW271944   3.454  10.602   0.459
23313SOL     OW71945   9.920   5.665   1.170
23313SOL    HW171946   9.870   5.661   1.088
23313SOL    HW271947  10.012   5.663   1.142
23314SOL     OW71948  10.790   0.830   9.312
23314SOL    HW171949  10.707   0.800   9.349
23314SOL    HW271950  10.765   0.881   9.235
23315SOL     OW71951   1.817   3.087   9.473
23315SOL    HW171952   1.856   3.122   9.393
23315SOL    HW271953   1.811   3.162   9.532
23316SOL     OW71954   6.280   4.808  10.992
23316SOL    HW171955   6.370   4.824  11.020
23316SOL    HW271956   6.279   4.833  10.899
23317SOL     OW71957   2.756   9.171   6.141
23317SOL    HW171958   2.757   9.255   6.186
23317SOL    HW271959   2.828   9.122   6.181
23318SOL     OW71960   1.907   6.881   1.710
23318SOL    HW171961   1.984   6.893   1.655
23318SOL    HW271962   1.925   6.801   1.759
23319SOL     OW71963   3.838   1.605   5.375
23319SOL    HW171964   3.784   1.603   5.454
23319SOL    HW271965   3.782   1.566   5.307
23320SOL     OW71966   6.597  10.772   2.395
23320SOL    HW171967   6.534  10.715   2.351
23320SOL    HW271968   6.682  10.729   2.382
23321SOL     OW71969   5.445   2.381   3.129
23321SOL    HW171970   5.355   2.379   3.161
23321SOL    HW271971   5.440   2.425   3.044
23322SOL     OW71972   6.402   8.281   2.321
23322SOL    HW171973   6.397   8.220   2.246
23322SOL    HW271974   6.311   8.293   2.349
23323SOL     OW71975   3.204   4.637   3.116
23323SOL    HW171976   3.220   4.616   3.208
23323SOL    HW271977   3.177   4.553   3.077
23324SOL     OW71978   4.764   8.828   2.871
23324SOL    HW171979   4.683   8.875   2.891
23324SOL    HW271980   4.821   8.844   2.946
23325SOL     OW71981   4.265   1.100  10.887
23325SOL    HW171982   4.344   1.102  10.940
23325SOL    HW271983   4.230   1.189  10.891
23326SOL     OW71984   6.043   3.081   5.637
23326SOL    HW171985   6.067   3.079   5.544
23326SOL    HW271986   5.970   3.142   5.641
23327SOL     OW71987   6.405   2.889   4.395
23327SOL    HW171988   6.499   2.908   4.397
23327SOL    HW271989   6.372   2.923   4.478
23328SOL     OW71990   5.853   3.998   0.365
23328SOL    HW171991   5.830   3.905   0.356
23328SOL    HW271992   5.805   4.041   0.294
23329SOL     OW71993   1.390  10.972   0.348
23329SOL    HW171994   1.442  10.904   0.304
23329SOL    HW271995   1.451  11.045   0.360
23330SOL     OW71996   5.757   2.654   3.444
23330SOL    HW171997   5.723   2.734   3.404
23330SOL    HW271998   5.793   2.604   3.371
23331SOL     OW71999   9.672   7.706   2.511
23331SOL    HW172000   9.711   7.778   2.559
23331SOL    HW272001   9.625   7.747   2.439
23332SOL     OW72002   4.195   6.353   7.490
23332SOL    HW172003   4.179   6.405   7.411
23332SOL    HW272004   4.239   6.274   7.457
23333SOL     OW72005   5.976  10.997   2.573
23333SOL    HW172006   5.964  10.903   2.588
23333SOL    HW272007   5.958  11.009   2.479
23334SOL     OW72008   8.448   6.649  10.876
23334SOL    HW172009   8.353   6.635  10.880
23334SOL    HW272010   8.460   6.711  10.804
23335SOL     OW72011   0.724   4.796   2.670
23335SOL    HW172012   0.805   4.797   2.618
23335SOL    HW272013   0.701   4.703   2.677
23336SOL     OW72014   5.679   4.261   1.971
23336SOL    HW172015   5.707   4.352   1.961
23336SOL    HW272016   5.653   4.253   2.063
23337SOL     OW72017   9.070   4.558   0.183
23337SOL    HW172018   9.073   4.641   0.136
23337SOL    HW272019   9.049   4.582   0.273
23338SOL     OW72020   5.588   7.207   6.291
23338SOL    HW172021   5.505   7.178   6.252
23338SOL    HW272022   5.633   7.252   6.220
23339SOL     OW72023   7.533   4.104   1.554
23339SOL    HW172024   7.520   4.185   1.602
23339SOL    HW272025   7.478   4.113   1.476
23340SOL     OW72026   8.978   5.879   6.109
23340SOL    HW172027   8.940   5.960   6.142
23340SOL    HW272028   8.958   5.879   6.015
23341SOL     OW72029   3.800  10.336   2.758
23341SOL    HW172030   3.853  10.386   2.820
23341SOL    HW272031   3.864  10.297   2.698
23342SOL     OW72032   7.746   3.427   7.133
23342SOL    HW172033   7.773   3.518   7.140
23342SOL    HW272034   7.654   3.427   7.159
23343SOL     OW72035   7.253   6.746   1.317
23343SOL    HW172036   7.330   6.772   1.266
23343SOL    HW272037   7.287   6.682   1.380
23344SOL     OW72038   8.698   0.470   4.966
23344SOL    HW172039   8.668   0.558   4.988
23344SOL    HW272040   8.622   0.414   4.981
23345SOL     OW72041   4.981   8.884   4.209
23345SOL    HW172042   4.956   8.970   4.242
23345SOL    HW272043   5.018   8.838   4.284
23346SOL     OW72044   1.448   3.210   3.732
23346SOL    HW172045   1.362   3.200   3.773
23346SOL    HW272046   1.429   3.226   3.639
23347SOL     OW72047  10.965   4.832   9.570
23347SOL    HW172048  10.996   4.918   9.542
23347SOL    HW272049  10.972   4.834   9.665
23348SOL     OW72050   4.010   3.262   9.115
23348SOL    HW172051   4.078   3.308   9.066
23348SOL    HW272052   4.008   3.174   9.075
23349SOL     OW72053   3.642   2.647   5.901
23349SOL    HW172054   3.609   2.615   5.817
23349SOL    HW272055   3.619   2.740   5.902
23350SOL     OW72056   8.702  10.725   1.668
23350SOL    HW172057   8.768  10.663   1.638
23350SOL    HW272058   8.631  10.716   1.604
23351SOL     OW72059   6.977   0.460   4.767
23351SOL    HW172060   6.922   0.494   4.696
23351SOL    HW272061   7.067   0.470   4.734
23352SOL     OW72062   4.456   3.772   3.118
23352SOL    HW172063   4.443   3.848   3.062
23352SOL    HW272064   4.397   3.786   3.192
23353SOL     OW72065   1.556   3.836   6.588
23353SOL    HW172066   1.649   3.839   6.612
23353SOL    HW272067   1.518   3.771   6.647
23354SOL     OW72068   2.389   1.777   7.507
23354SOL    HW172069   2.441   1.847   7.468
23354SOL    HW272070   2.315   1.766   7.447
23355SOL     OW72071   2.020   8.967  10.691
23355SOL    HW172072   1.998   9.048  10.737
23355SOL    HW272073   1.983   8.978  10.603
23356SOL     OW72074   5.571   8.352   0.418
23356SOL    HW172075   5.490   8.354   0.366
23356SOL    HW272076   5.550   8.398   0.499
23357SOL     OW72077   0.549   7.664   0.462
23357SOL    HW172078   0.612   7.596   0.487
23357SOL    HW272079   0.507   7.628   0.384
23358SOL     OW72080   7.806   1.218   2.080
23358SOL    HW172081   7.848   1.257   2.157
23358SOL    HW272082   7.879   1.196   2.021
23359SOL     OW72083   4.342   1.199   5.760
23359SOL    HW172084   4.436   1.206   5.778
23359SOL    HW272085   4.336   1.199   5.664
23360SOL     OW72086   9.799  10.911   5.815
23360SOL    HW172087   9.760  10.891   5.730
23360SOL    HW272088   9.835  10.999   5.805
23361SOL     OW72089   5.558   4.235   6.653
23361SOL    HW172090   5.523   4.324   6.656
23361SOL    HW272091   5.618   4.230   6.727
23362SOL     OW72092   6.950  10.294   6.708
23362SOL    HW172093   6.966  10.387   6.719
23362SOL    HW272094   6.908  10.267   6.789
23363SOL     OW72095   9.155   0.315   6.759
23363SOL    HW172096   9.155   0.261   6.838
23363SOL    HW272097   9.074   0.292   6.714
23364SOL     OW72098   2.415  10.468   5.068
23364SOL    HW172099   2.403  10.375   5.050
23364SOL    HW272100   2.494  10.472   5.122
23365SOL     OW72101   8.585   2.308   7.267
23365SOL    HW172102   8.657   2.342   7.320
23365SOL    HW272103   8.539   2.247   7.325
23366SOL     OW72104   6.820   2.212   4.826
23366SOL    HW172105   6.840   2.305   4.821
23366SOL    HW272106   6.897   2.173   4.868
23367SOL     OW72107   7.375   4.572   3.782
23367SOL    HW172108   7.341   4.485   3.759
23367SOL    HW272109   7.318   4.603   3.852
23368SOL     OW72110   9.215   1.970   1.588
23368SOL    HW172111   9.229   2.054   1.544
23368SOL    HW272112   9.295   1.920   1.571
23369SOL     OW72113   8.711  10.888   5.236
23369SOL    HW172114   8.758  10.971   5.234
23369SOL    HW272115   8.753  10.835   5.168
23370SOL     OW72116   8.204   2.581   7.352
23370SOL    HW172117   8.208   2.489   7.326
23370SOL    HW272118   8.131   2.617   7.301
23371SOL     OW72119   8.169   9.093   8.671
23371SOL    HW172120   8.122   9.048   8.741
23371SOL    HW272121   8.262   9.079   8.691
23372SOL     OW72122  10.351   1.886   5.283
23372SOL    HW172123  10.267   1.864   5.243
23372SOL    HW272124  10.390   1.801   5.303
23373SOL     OW72125   6.601   2.375   5.225
23373SOL    HW172126   6.521   2.351   5.272
23373SOL    HW272127   6.640   2.445   5.277
23374SOL     OW72128   5.447   3.398   7.422
23374SOL    HW172129   5.516   3.434   7.478
23374SOL    HW272130   5.459   3.303   7.427
23375SOL     OW72131   9.575   0.450   1.049
23375SOL    HW172132   9.637   0.523   1.042
23375SOL    HW272133   9.618   0.378   1.002
23376SOL     OW72134  10.456   2.705   4.404
23376SOL    HW172135  10.434   2.769   4.471
23376SOL    HW272136  10.551   2.712   4.394
23377SOL     OW72137   5.268   3.150   6.529
23377SOL    HW172138   5.309   3.236   6.522
23377SOL    HW272139   5.230   3.148   6.616
23378SOL     OW72140   5.174   5.664   2.880
23378SOL    HW172141   5.162   5.569   2.878
23378SOL    HW272142   5.178   5.686   2.973
23379SOL     OW72143   9.465   0.910   1.213
23379SOL    HW172144   9.541   0.856   1.236
23379SOL    HW272145   9.477   0.990   1.263
23380SOL     OW72146   3.630   3.338   4.461
23380SOL    HW172147   3.552   3.286   4.442
23380SOL    HW272148   3.651   3.380   4.377
23381SOL     OW72149   5.718   7.181   0.390
23381SOL    HW172150   5.767   7.116   0.441
23381SOL    HW272151   5.713   7.143   0.302
23382SOL     OW72152   7.556  11.016   4.891
23382SOL    HW172153   7.609  11.082   4.846
23382SOL    HW272154   7.617  10.973   4.950
23383SOL     OW72155   5.916   9.562   7.311
23383SOL    HW172156   5.971   9.570   7.232
23383SOL    HW272157   5.837   9.612   7.290
23384SOL     OW72158   1.490   2.447   0.211
23384SOL    HW172159   1.429   2.499   0.159
23384SOL    HW272160   1.546   2.511   0.254
23385SOL     OW72161   4.692   6.758   1.457
23385SOL    HW172162   4.650   6.781   1.539
23385SOL    HW272163   4.693   6.839   1.406
23386SOL     OW72164   3.280   7.695  10.903
23386SOL    HW172165   3.260   7.787  10.917
23386SOL    HW272166   3.195   7.652  10.901
23387SOL     OW72167  10.768  10.523   9.098
23387SOL    HW172168  10.821  10.498   9.173
23387SOL    HW272169  10.819  10.591   9.054
23388SOL     OW72170   4.892   4.778   2.343
23388SOL    HW172171   4.821   4.713   2.339
23388SOL    HW272172   4.969   4.730   2.312
23389SOL     OW72173   7.129   6.464   1.890
23389SOL    HW172174   7.140   6.558   1.876
23389SOL    HW272175   7.175   6.446   1.972
23390SOL     OW72176   6.480   1.957   4.094
23390SOL    HW172177   6.556   2.002   4.131
23390SOL    HW272178   6.517   1.890   4.035
23391SOL     OW72179   2.642   3.399   7.314
23391SOL    HW172180   2.697   3.445   7.377
23391SOL    HW272181   2.553   3.429   7.333
23392SOL     OW72182  10.541   5.216   0.747
23392SOL    HW172183  10.592   5.271   0.687
23392SOL    HW272184  10.496   5.154   0.689
23393SOL     OW72185   9.398   8.659   0.014
23393SOL    HW172186   9.475   8.640  -0.040
23393SOL    HW272187   9.328   8.674  -0.049
23394SOL     OW72188   4.778   6.826   3.259
23394SOL    HW172189   4.728   6.880   3.198
23394SOL    HW272190   4.832   6.888   3.308
23395SOL     OW72191   8.641   0.639   1.286
23395SOL    HW172192   8.719   0.585   1.296
23395SOL    HW272193   8.663   0.721   1.330
23396SOL     OW72194   3.026   3.377   3.634
23396SOL    HW172195   3.016   3.317   3.560
23396SOL    HW272196   2.937   3.405   3.654
23397SOL     OW72197   7.791   3.185   1.451
23397SOL    HW172198   7.772   3.259   1.509
23397SOL    HW272199   7.709   3.171   1.403
23398SOL     OW72200   8.508   2.114  10.110
23398SOL    HW172201   8.493   2.193  10.162
23398SOL    HW272202   8.421   2.077  10.097
23399SOL     OW72203   2.499   5.662   4.739
23399SOL    HW172204   2.456   5.744   4.761
23399SOL    HW272205   2.442   5.621   4.673
23400SOL     OW72206   0.507   9.818   6.945
23400SOL    HW172207   0.413   9.826   6.960
23400SOL    HW272208   0.514   9.774   6.860
23401SOL     OW72209   5.035   2.793   9.093
23401SOL    HW172210   5.013   2.847   9.017
23401SOL    HW272211   4.963   2.730   9.099
23402SOL     OW72212   7.552   6.722   1.972
23402SOL    HW172213   7.573   6.647   1.915
23402SOL    HW272214   7.501   6.780   1.916
23403SOL     OW72215   1.346   3.825   5.431
23403SOL    HW172216   1.309   3.841   5.517
23403SOL    HW272217   1.423   3.769   5.447
23404SOL     OW72218   2.823   4.533  10.297
23404SOL    HW172219   2.742   4.482  10.290
23404SOL    HW272220   2.813   4.583  10.378
23405SOL     OW72221   2.311   6.113   5.147
23405SOL    HW172222   2.401   6.118   5.113
23405SOL    HW272223   2.277   6.202   5.137
23406SOL     OW72224   9.230   3.290   8.308
23406SOL    HW172225   9.193   3.203   8.290
23406SOL    HW272226   9.173   3.327   8.375
23407SOL     OW72227   3.874   5.202   1.657
23407SOL    HW172228   3.926   5.163   1.587
23407SOL    HW272229   3.793   5.230   1.614
23408SOL     OW72230   8.102  10.442   0.579
23408SOL    HW172231   8.121  10.349   0.588
23408SOL    HW272232   8.017  10.453   0.622
23409SOL     OW72233   5.808   1.876   5.292
23409SOL    HW172234   5.715   1.894   5.302
23409SOL    HW272235   5.812   1.809   5.223
23410SOL     OW72236   9.403   7.631  10.108
23410SOL    HW172237   9.455   7.642  10.028
23410SOL    HW272238   9.312   7.634  10.078
23411SOL     OW72239   4.698   3.874   4.801
23411SOL    HW172240   4.608   3.851   4.822
23411SOL    HW272241   4.711   3.960   4.841
23412SOL     OW72242   8.621   0.927   2.465
23412SOL    HW172243   8.562   0.890   2.531
23412SOL    HW272244   8.594   1.018   2.456
23413SOL     OW72245   8.627   5.218   6.107
23413SOL    HW172246   8.701   5.208   6.167
23413SOL    HW272247   8.642   5.151   6.040
23414SOL     OW72248   2.067   8.455   3.111
23414SOL    HW172249   2.090   8.362   3.117
23414SOL    HW272250   1.986   8.463   3.162
23415SOL     OW72251   2.031   9.029   1.020
23415SOL    HW172252   2.104   9.013   1.080
23415SOL    HW272253   2.003   9.118   1.040
23416SOL     OW72254   9.314   6.730   3.349
23416SOL    HW172255   9.400   6.697   3.377
23416SOL    HW272256   9.251   6.675   3.396
23417SOL     OW72257   4.333   2.596   4.252
23417SOL    HW172258   4.261   2.544   4.216
23417SOL    HW272259   4.290   2.666   4.300
23418SOL     OW72260   4.598   1.913   4.989
23418SOL    HW172261   4.507   1.934   5.009
23418SOL    HW272262   4.630   1.867   5.066
23419SOL     OW72263  10.227   3.484  10.313
23419SOL    HW172264  10.143   3.491  10.358
23419SOL    HW272265  10.204   3.469  10.221
23420SOL     OW72266   6.632   2.019  10.249
23420SOL    HW172267   6.647   1.974  10.332
23420SOL    HW272268   6.576   1.959  10.199
23421SOL     OW72269   3.102   8.561   5.616
23421SOL    HW172270   3.075   8.499   5.684
23421SOL    HW272271   3.104   8.645   5.660
23422SOL     OW72272   4.619   3.614   1.727
23422SOL    HW172273   4.682   3.577   1.665
23422SOL    HW272274   4.635   3.708   1.724
23423SOL     OW72275   7.623   3.118   7.362
23423SOL    HW172276   7.696   3.158   7.409
23423SOL    HW272277   7.583   3.190   7.314
23424SOL     OW72278   4.507  10.995   8.890
23424SOL    HW172279   4.475  10.984   8.979
23424SOL    HW272280   4.451  10.937   8.838
23425SOL     OW72281  10.989   2.257  10.526
23425SOL    HW172282  10.975   2.178  10.578
23425SOL    HW272283  11.082   2.278  10.538
23426SOL     OW72284  10.285   4.338   0.384
23426SOL    HW172285  10.278   4.270   0.316
23426SOL    HW272286  10.337   4.297   0.453
23427SOL     OW72287  10.016   0.449   6.976
23427SOL    HW172288   9.932   0.482   7.007
23427SOL    HW272289  10.016   0.467   6.882
23428SOL     OW72290   8.014   2.561   2.924
23428SOL    HW172291   8.020   2.505   2.846
23428SOL    HW272292   7.948   2.626   2.901
23429SOL     OW72293   1.024   1.730   4.389
23429SOL    HW172294   0.969   1.783   4.331
23429SOL    HW272295   1.057   1.791   4.454
23430SOL     OW72296   9.908   1.637   6.037
23430SOL    HW172297   9.993   1.678   6.056
23430SOL    HW272298   9.930   1.548   6.010
23431SOL     OW72299   6.895  10.239   3.997
23431SOL    HW172300   6.863  10.276   4.079
23431SOL    HW272301   6.849  10.287   3.929
23432SOL     OW72302   3.957   2.432   2.413
23432SOL    HW172303   3.980   2.362   2.351
23432SOL    HW272304   3.977   2.395   2.499
23433SOL     OW72305   9.419   2.315   6.512
23433SOL    HW172306   9.372   2.310   6.595
23433SOL    HW272307   9.375   2.251   6.455
23434SOL     OW72308  10.995  10.332   4.657
23434SOL    HW172309  11.062  10.263   4.655
23434SOL    HW272310  11.022  10.394   4.589
23435SOL     OW72311   9.885   3.674  10.721
23435SOL    HW172312   9.971   3.694  10.759
23435SOL    HW272313   9.824   3.683  10.793
23436SOL     OW72314   0.802   0.235   0.702
23436SOL    HW172315   0.879   0.189   0.668
23436SOL    HW272316   0.818   0.327   0.683
23437SOL     OW72317   0.453   0.254   4.929
23437SOL    HW172318   0.420   0.173   4.889
23437SOL    HW272319   0.548   0.240   4.936
23438SOL     OW72320   3.025   0.836   5.171
23438SOL    HW172321   3.096   0.785   5.210
23438SOL    HW272322   3.069   0.894   5.109
23439SOL     OW72323  10.903   1.433   4.083
23439SOL    HW172324  10.814   1.400   4.070
23439SOL    HW272325  10.892   1.526   4.099
23440SOL     OW72326   1.362  10.244   0.790
23440SOL    HW172327   1.364  10.191   0.710
23440SOL    HW272328   1.442  10.219   0.837
23441SOL     OW72329   6.131   3.176   7.658
23441SOL    HW172330   6.083   3.167   7.575
23441SOL    HW272331   6.092   3.252   7.700
23442SOL     OW72332   8.942   7.031  10.833
23442SOL    HW172333   8.913   7.103  10.889
23442SOL    HW272334   9.028   7.058  10.801
23443SOL     OW72335   9.900   4.184   4.407
23443SOL    HW172336   9.946   4.117   4.457
23443SOL    HW272337   9.831   4.214   4.465
23444SOL     OW72338   3.715   9.436   0.868
23444SOL    HW172339   3.802   9.459   0.900
23444SOL    HW272340   3.657   9.503   0.904
23445SOL     OW72341   6.617   0.703   6.083
23445SOL    HW172342   6.688   0.640   6.098
23445SOL    HW272343   6.648   0.784   6.122
23446SOL     OW72344   6.896   3.518  10.087
23446SOL    HW172345   6.826   3.466  10.047
23446SOL    HW272346   6.860   3.545  10.171
23447SOL     OW72347   0.068   1.707   3.712
23447SOL    HW172348   0.146   1.762   3.704
23447SOL    HW272349   0.038   1.695   3.622
23448SOL     OW72350   8.630   7.620   0.800
23448SOL    HW172351   8.562   7.687   0.794
23448SOL    HW272352   8.654   7.602   0.709
23449SOL     OW72353   8.008  10.016   4.176
23449SOL    HW172354   7.917  10.013   4.146
23449SOL    HW272355   8.036  10.106   4.160
23450SOL     OW72356   0.094   4.294   8.466
23450SOL    HW172357   0.130   4.246   8.540
23450SOL    HW272358   0.141   4.259   8.390
23451SOL     OW72359   7.758   1.028   0.382
23451SOL    HW172360   7.778   1.109   0.429
23451SOL    HW272361   7.664   1.017   0.391
23452SOL     OW72362   1.781   4.296   5.893
23452SOL    HW172363   1.725   4.287   5.970
23452SOL    HW272364   1.867   4.318   5.928
23453SOL     OW72365   4.764   0.204   6.192
23453SOL    HW172366   4.821   0.128   6.178
23453SOL    HW272367   4.722   0.218   6.107
23454SOL     OW72368   9.738   8.529   6.561
23454SOL    HW172369   9.735   8.592   6.632
23454SOL    HW272370   9.727   8.444   6.603
23455SOL     OW72371   6.860   3.123   4.500
23455SOL    HW172372   6.859   3.129   4.595
23455SOL    HW272373   6.952   3.134   4.476
23456SOL     OW72374  10.774   3.985  10.454
23456SOL    HW172375  10.863   4.020  10.444
23456SOL    HW272376  10.722   4.031  10.388
23457SOL     OW72377  11.070   9.140   2.907
23457SOL    HW172378  11.064   9.146   3.002
23457SOL    HW272379  10.985   9.170   2.876
23458SOL     OW72380   5.187   3.126   6.784
23458SOL    HW172381   5.275   3.138   6.819
23458SOL    HW272382   5.144   3.067   6.846
23459SOL     OW72383   4.580   3.109   6.351
23459SOL    HW172384   4.611   3.048   6.418
23459SOL    HW272385   4.659   3.134   6.303
23460SOL     OW72386   3.565   7.836   0.712
23460SOL    HW172387   3.633   7.903   0.717
23460SOL    HW272388   3.502   7.860   0.780
23461SOL     OW72389   9.384   0.125   6.227
23461SOL    HW172390   9.304   0.117   6.175
23461SOL    HW272391   9.451   0.081   6.175
23462SOL     OW72392   9.008   1.903   6.610
23462SOL    HW172393   9.083   1.865   6.563
23462SOL    HW272394   8.941   1.835   6.606
23463SOL     OW72395   9.454   4.789   4.540
23463SOL    HW172396   9.397   4.862   4.563
23463SOL    HW272397   9.530   4.829   4.499
23464SOL     OW72398   7.678   3.310   9.602
23464SOL    HW172399   7.639   3.392   9.633
23464SOL    HW272400   7.763   3.336   9.565
23465SOL     OW72401   3.440   1.527   8.067
23465SOL    HW172402   3.473   1.522   8.156
23465SOL    HW272403   3.346   1.539   8.077
23466SOL     OW72404   7.913   4.174   8.429
23466SOL    HW172405   7.827   4.202   8.460
23466SOL    HW272406   7.968   4.252   8.433
23467SOL     OW72407   7.316   4.210   1.032
23467SOL    HW172408   7.324   4.183   1.123
23467SOL    HW272409   7.222   4.214   1.016
23468SOL     OW72410  10.746   5.425   3.818
23468SOL    HW172411  10.702   5.340   3.827
23468SOL    HW272412  10.675   5.489   3.814
23469SOL     OW72413   4.834   1.606   4.590
23469SOL    HW172414   4.797   1.660   4.659
23469SOL    HW272415   4.858   1.668   4.521
23470SOL     OW72416   2.367   3.431   6.377
23470SOL    HW172417   2.420   3.492   6.326
23470SOL    HW272418   2.408   3.429   6.463
23471SOL     OW72419   6.815   4.886   4.447
23471SOL    HW172420   6.837   4.871   4.539
23471SOL    HW272421   6.886   4.845   4.398
23472SOL     OW72422   9.398   5.551   8.145
23472SOL    HW172423   9.358   5.514   8.224
23472SOL    HW272424   9.388   5.645   8.155
23473SOL     OW72425   7.871   9.218   2.146
23473SOL    HW172426   7.825   9.291   2.106
23473SOL    HW272427   7.955   9.254   2.174
23474SOL     OW72428   1.234   0.320   3.167
23474SOL    HW172429   1.186   0.242   3.194
23474SOL    HW272430   1.167   0.385   3.148
23475SOL     OW72431   4.233   6.664   0.361
23475SOL    HW172432   4.314   6.715   0.360
23475SOL    HW272433   4.163   6.729   0.354
23476SOL     OW72434   4.922  10.010   2.519
23476SOL    HW172435   5.012  10.030   2.494
23476SOL    HW272436   4.921  10.020   2.614
23477SOL     OW72437   6.934   3.605   5.215
23477SOL    HW172438   6.956   3.523   5.170
23477SOL    HW272439   6.936   3.582   5.308
23478SOL     OW72440  11.088   2.938   3.474
23478SOL    HW172441  10.993   2.947   3.479
23478SOL    HW272442  11.104   2.905   3.385
23479SOL     OW72443   3.742   9.625   4.235
23479SOL    HW172444   3.779   9.708   4.206
23479SOL    HW272445   3.790   9.559   4.185
23480SOL     OW72446   5.359   1.083  10.585
23480SOL    HW172447   5.329   1.171  10.564
23480SOL    HW272448   5.405   1.054  10.506
23481SOL     OW72449   1.478   6.080   2.044
23481SOL    HW172450   1.389   6.075   2.078
23481SOL    HW272451   1.472   6.042   1.956
23482SOL     OW72452   2.428  10.080   4.357
23482SOL    HW172453   2.405  10.064   4.448
23482SOL    HW272454   2.463   9.996   4.326
23483SOL     OW72455   7.935   3.237   2.023
23483SOL    HW172456   7.895   3.324   2.019
23483SOL    HW272457   8.001   3.238   1.953
23484SOL     OW72458   9.754   8.107   8.139
23484SOL    HW172459   9.808   8.112   8.060
23484SOL    HW272460   9.790   8.032   8.187
23485SOL     OW72461   5.219   8.093   1.379
23485SOL    HW172462   5.237   8.007   1.417
23485SOL    HW272463   5.141   8.124   1.424
23486SOL     OW72464   5.022   7.207   3.205
23486SOL    HW172465   4.993   7.155   3.130
23486SOL    HW272466   5.087   7.267   3.169
23487SOL     OW72467   8.534   2.595  10.048
23487SOL    HW172468   8.607   2.553  10.002
23487SOL    HW272469   8.496   2.525  10.101
23488SOL     OW72470   4.164   6.620   3.974
23488SOL    HW172471   4.090   6.562   3.953
23488SOL    HW272472   4.213   6.573   4.041
23489SOL     OW72473   7.318   8.378   2.308
23489SOL    HW172474   7.367   8.337   2.237
23489SOL    HW272475   7.249   8.428   2.264
23490SOL     OW72476   1.212   9.049   2.674
23490SOL    HW172477   1.171   9.053   2.587
23490SOL    HW272478   1.149   9.002   2.728
23491SOL     OW72479  10.634   7.838   5.118
23491SOL    HW172480  10.709   7.886   5.083
23491SOL    HW272481  10.582   7.816   5.041
23492SOL     OW72482   4.671   7.218  10.900
23492SOL    HW172483   4.669   7.313  10.897
23492SOL    HW272484   4.699   7.196  10.989
23493SOL     OW72485   4.273   9.257   1.417
23493SOL    HW172486   4.274   9.233   1.509
23493SOL    HW272487   4.263   9.173   1.371
23494SOL     OW72488   7.323   0.010   0.125
23494SOL    HW172489   7.327   0.025   0.220
23494SOL    HW272490   7.323  -0.086   0.117
23495SOL     OW72491   7.770   8.701   2.593
23495SOL    HW172492   7.682   8.704   2.556
23495SOL    HW272493   7.773   8.618   2.641
23496SOL     OW72494   9.340   3.952   0.380
23496SOL    HW172495   9.257   3.920   0.415
23496SOL    HW272496   9.339   4.046   0.398
23497SOL     OW72497   2.972  10.743   4.831
23497SOL    HW172498   3.049  10.768   4.780
23497SOL    HW272499   2.904  10.728   4.765
23498SOL     OW72500   4.219   7.179   8.690
23498SOL    HW172501   4.208   7.233   8.612
23498SOL    HW272502   4.270   7.103   8.660
23499SOL     OW72503   1.382   7.774   3.130
23499SOL    HW172504   1.351   7.787   3.040
23499SOL    HW272505   1.368   7.858   3.173
23500SOL     OW72506   5.392   1.637   3.340
23500SOL    HW172507   5.400   1.542   3.353
23500SOL    HW272508   5.456   1.657   3.272
23501SOL     OW72509   3.277   9.126   4.331
23501SOL    HW172510   3.306   9.213   4.304
23501SOL    HW272511   3.276   9.075   4.249
23502SOL     OW72512   6.925   5.873   0.386
23502SOL    HW172513   6.842   5.892   0.342
23502SOL    HW272514   6.963   5.801   0.334
23503SOL     OW72515   3.174   5.262   7.315
23503SOL    HW172516   3.129   5.280   7.232
23503SOL    HW272517   3.243   5.328   7.319
23504SOL     OW72518   4.541  10.280   9.734
23504SOL    HW172519   4.537  10.349   9.668
23504SOL    HW272520   4.588  10.209   9.690
23505SOL     OW72521  10.021   1.655   8.420
23505SOL    HW172522  10.098   1.602   8.399
23505SOL    HW272523   9.948   1.593   8.416
23506SOL     OW72524   7.421   0.957   2.600
23506SOL    HW172525   7.414   1.025   2.667
23506SOL    HW272526   7.472   0.887   2.642
23507SOL     OW72527   5.317   2.561   4.547
23507SOL    HW172528   5.243   2.604   4.589
23507SOL    HW272529   5.370   2.528   4.619
23508SOL     OW72530   3.769   9.213   8.592
23508SOL    HW172531   3.807   9.299   8.606
23508SOL    HW272532   3.723   9.220   8.508
23509SOL     OW72533   2.096  10.970   3.786
23509SOL    HW172534   2.190  10.976   3.770
23509SOL    HW272535   2.057  10.975   3.698
23510SOL     OW72536  10.046   2.394   1.207
23510SOL    HW172537  10.119   2.348   1.250
23510SOL    HW272538   9.969   2.371   1.259
23511SOL     OW72539   4.647   3.549   0.778
23511SOL    HW172540   4.663   3.613   0.709
23511SOL    HW272541   4.716   3.565   0.842
23512SOL     OW72542   1.058   3.649  10.046
23512SOL    HW172543   1.128   3.626  10.107
23512SOL    HW272544   1.025   3.733  10.077
23513SOL     OW72545   4.833   9.013   0.034
23513SOL    HW172546   4.775   8.953  -0.013
23513SOL    HW272547   4.920   8.972   0.028
23514SOL     OW72548   3.504   4.216   7.274
23514SOL    HW172549   3.567   4.157   7.315
23514SOL    HW272550   3.448   4.158   7.222
23515SOL     OW72551   7.529  10.634   9.479
23515SOL    HW172552   7.590  10.600   9.413
23515SOL    HW272553   7.462  10.679   9.428
23516SOL     OW72554   7.552   0.383   8.703
23516SOL    HW172555   7.498   0.455   8.736
23516SOL    HW272556   7.518   0.305   8.747
23517SOL     OW72557   9.204   2.463   8.252
23517SOL    HW172558   9.165   2.446   8.338
23517SOL    HW272559   9.225   2.376   8.217
23518SOL     OW72560   6.267   3.944   2.734
23518SOL    HW172561   6.311   3.909   2.811
23518SOL    HW272562   6.278   3.876   2.667
23519SOL     OW72563   0.303   6.807  10.521
23519SOL    HW172564   0.352   6.845  10.594
23519SOL    HW272565   0.370   6.786  10.456
23520SOL     OW72566   1.160   7.193   3.773
23520SOL    HW172567   1.201   7.167   3.856
23520SOL    HW272568   1.068   7.168   3.782
23521SOL     OW72569   4.230   7.424   3.570
23521SOL    HW172570   4.256   7.391   3.484
23521SOL    HW272571   4.197   7.347   3.616
23522SOL     OW72572   1.582   3.770   6.093
23522SOL    HW172573   1.655   3.728   6.139
23522SOL    HW272574   1.542   3.699   6.042
23523SOL     OW72575   3.094   8.296   2.542
23523SOL    HW172576   3.173   8.255   2.578
23523SOL    HW272577   3.022   8.257   2.592
23524SOL     OW72578   3.113   7.859   2.288
23524SOL    HW172579   3.205   7.832   2.282
23524SOL    HW272580   3.110   7.943   2.242
23525SOL     OW72581   4.487   3.813   2.294
23525SOL    HW172582   4.419   3.831   2.358
23525SOL    HW272583   4.566   3.797   2.346
23526SOL     OW72584   9.021   0.913   0.082
23526SOL    HW172585   9.021   0.860   0.003
23526SOL    HW272586   8.935   0.954   0.084
23527SOL     OW72587   2.888   6.133   6.317
23527SOL    HW172588   2.962   6.073   6.330
23527SOL    HW272589   2.929   6.217   6.298
23528SOL     OW72590   8.229   5.635   9.551
23528SOL    HW172591   8.245   5.558   9.606
23528SOL    HW272592   8.199   5.702   9.611
23529SOL     OW72593   3.991   1.947   1.709
23529SOL    HW172594   4.042   1.991   1.640
23529SOL    HW272595   3.904   1.936   1.671
23530SOL     OW72596   7.068  10.087   5.741
23530SOL    HW172597   6.983  10.043   5.747
23530SOL    HW272598   7.057  10.168   5.791
23531SOL     OW72599   8.911   0.440   8.202
23531SOL    HW172600   8.839   0.486   8.245
23531SOL    HW272601   8.914   0.476   8.113
23532SOL     OW72602   6.500   8.715  10.027
23532SOL    HW172603   6.579   8.757   9.993
23532SOL    HW272604   6.445   8.702   9.950
23533SOL     OW72605   5.794   2.270   9.962
23533SOL    HW172606   5.712   2.315   9.943
23533SOL    HW272607   5.852   2.294   9.889
23534SOL     OW72608   7.786   3.167   2.869
23534SOL    HW172609   7.795   3.159   2.964
23534SOL    HW272610   7.693   3.183   2.854
23535SOL     OW72611   5.548   6.462   2.293
23535SOL    HW172612   5.622   6.436   2.237
23535SOL    HW272613   5.476   6.476   2.232
23536SOL     OW72614   1.640   2.511   2.526
23536SOL    HW172615   1.562   2.484   2.573
23536SOL    HW272616   1.667   2.433   2.477
23537SOL     OW72617   7.636   0.389   9.643
23537SOL    HW172618   7.675   0.467   9.682
23537SOL    HW272619   7.609   0.335   9.717
23538SOL     OW72620   6.965   6.402   1.291
23538SOL    HW172621   7.060   6.398   1.277
23538SOL    HW272622   6.939   6.310   1.302
23539SOL     OW72623   7.613   1.823   1.576
23539SOL    HW172624   7.541   1.834   1.638
23539SOL    HW272625   7.664   1.749   1.610
23540SOL     OW72626   8.263   1.128   7.445
23540SOL    HW172627   8.356   1.120   7.467
23540SOL    HW272628   8.218   1.134   7.529
23541SOL     OW72629   6.880   5.130   2.638
23541SOL    HW172630   6.894   5.224   2.638
23541SOL    HW272631   6.968   5.092   2.630
23542SOL     OW72632   5.343   6.579   1.691
23542SOL    HW172633   5.301   6.509   1.641
23542SOL    HW272634   5.285   6.593   1.766
23543SOL     OW72635   9.525   4.140   4.646
23543SOL    HW172636   9.579   4.188   4.583
23543SOL    HW272637   9.440   4.183   4.642
23544SOL     OW72638   8.468  10.938   7.941
23544SOL    HW172639   8.454  10.954   8.034
23544SOL    HW272640   8.466  10.843   7.932
23545SOL     OW72641  10.836   9.732   4.953
23545SOL    HW172642  10.754   9.765   4.917
23545SOL    HW272643  10.820   9.639   4.969
23546SOL     OW72644  10.814   8.285   2.984
23546SOL    HW172645  10.728   8.327   2.984
23546SOL    HW272646  10.851   8.306   2.898
23547SOL     OW72647   0.665   0.389   6.146
23547SOL    HW172648   0.623   0.475   6.149
23547SOL    HW272649   0.753   0.406   6.113
23548SOL     OW72650   6.375   0.823   4.610
23548SOL    HW172651   6.334   0.846   4.693
23548SOL    HW272652   6.383   0.727   4.613
23549SOL     OW72653   6.310   9.516   6.211
23549SOL    HW172654   6.345   9.546   6.295
23549SOL    HW272655   6.281   9.426   6.228
23550SOL     OW72656   6.992   4.546   3.613
23550SOL    HW172657   7.027   4.634   3.623
23550SOL    HW272658   7.062   4.488   3.645
23551SOL     OW72659   6.037   0.973   7.388
23551SOL    HW172660   6.055   0.956   7.295
23551SOL    HW272661   6.028   1.068   7.393
23552SOL     OW72662  10.857   3.243   8.939
23552SOL    HW172663  10.768   3.275   8.950
23552SOL    HW272664  10.908   3.289   9.005
23553SOL     OW72665   7.580   7.876   3.562
23553SOL    HW172666   7.570   7.783   3.541
23553SOL    HW272667   7.490   7.909   3.567
23554SOL     OW72668   8.566   9.097   2.046
23554SOL    HW172669   8.649   9.076   2.088
23554SOL    HW272670   8.552   9.026   1.983
23555SOL     OW72671   8.763  10.610   5.954
23555SOL    HW172672   8.857  10.612   5.936
23555SOL    HW272673   8.746  10.691   6.002
23556SOL     OW72674   0.157   2.444   2.694
23556SOL    HW172675   0.241   2.416   2.730
23556SOL    HW272676   0.106   2.471   2.770
23557SOL     OW72677   2.618   1.651   1.579
23557SOL    HW172678   2.538   1.701   1.561
23557SOL    HW272679   2.596   1.598   1.655
23558SOL     OW72680   9.341  10.797   3.166
23558SOL    HW172681   9.386  10.790   3.250
23558SOL    HW272682   9.332  10.707   3.136
23559SOL     OW72683   6.732   8.326   0.759
23559SOL    HW172684   6.640   8.338   0.734
23559SOL    HW272685   6.778   8.314   0.676
23560SOL     OW72686   5.658  10.223  10.858
23560SOL    HW172687   5.743  10.214  10.814
23560SOL    HW272688   5.678  10.215  10.951
23561SOL     OW72689   8.743  10.797   9.518
23561SOL    HW172690   8.656  10.763   9.537
23561SOL    HW272691   8.795  10.720   9.495
23562SOL     OW72692   9.617   9.164   0.202
23562SOL    HW172693   9.599   9.228   0.270
23562SOL    HW272694   9.713   9.160   0.198
23563SOL     OW72695   6.753   1.896   5.353
23563SOL    HW172696   6.726   1.838   5.424
23563SOL    HW272697   6.680   1.957   5.343
23564SOL     OW72698   2.017   3.016   6.438
23564SOL    HW172699   2.066   3.054   6.365
23564SOL    HW272700   2.045   3.066   6.515
23565SOL     OW72701   8.561   8.692   4.150
23565SOL    HW172702   8.627   8.642   4.102
23565SOL    HW272703   8.607   8.723   4.228
23566SOL     OW72704   9.742  10.415   3.702
23566SOL    HW172705   9.649  10.422   3.723
23566SOL    HW272706   9.787  10.435   3.784
23567SOL     OW72707   5.612   6.723   6.115
23567SOL    HW172708   5.603   6.663   6.040
23567SOL    HW272709   5.693   6.771   6.098
23568SOL     OW72710   5.840   1.928   3.906
23568SOL    HW172711   5.824   1.890   3.992
23568SOL    HW272712   5.879   2.013   3.924
23569SOL     OW72713   9.880   1.946   0.794
23569SOL    HW172714   9.968   1.909   0.801
23569SOL    HW272715   9.828   1.874   0.758
23570SOL     OW72716   8.116   0.882   6.412
23570SOL    HW172717   8.048   0.880   6.344
23570SOL    HW272718   8.153   0.793   6.411
23571SOL     OW72719   9.630   1.698   8.287
23571SOL    HW172720   9.553   1.734   8.330
23571SOL    HW272721   9.605   1.691   8.195
23572SOL     OW72722   9.544   4.202   6.036
23572SOL    HW172723   9.487   4.275   6.014
23572SOL    HW272724   9.591   4.184   5.954
23573SOL     OW72725  10.532   0.973   5.034
23573SOL    HW172726  10.553   1.052   4.984
23573SOL    HW272727  10.561   0.901   4.978
23574SOL     OW72728   9.075   5.691   1.944
23574SOL    HW172729   9.010   5.621   1.948
23574SOL    HW272730   9.129   5.678   2.022
23575SOL     OW72731   5.117   7.998   9.676
23575SOL    HW172732   5.084   8.013   9.764
23575SOL    HW272733   5.107   8.082   9.631
23576SOL     OW72734   6.784   5.172   1.825
23576SOL    HW172735   6.796   5.133   1.911
23576SOL    HW272736   6.746   5.258   1.842
23577SOL     OW72737   6.863   2.767  10.550
23577SOL    HW172738   6.791   2.732  10.497
23577SOL    HW272739   6.942   2.729  10.511
23578SOL     OW72740   3.375   9.728   4.062
23578SOL    HW172741   3.373   9.634   4.040
23578SOL    HW272742   3.384   9.772   3.977
23579SOL     OW72743   5.981   4.441   5.950
23579SOL    HW172744   6.066   4.479   5.930
23579SOL    HW272745   5.925   4.515   5.970
23580SOL     OW72746   8.517   1.511   2.742
23580SOL    HW172747   8.479   1.598   2.734
23580SOL    HW272748   8.575   1.503   2.666
23581SOL     OW72749   3.164   1.402   1.099
23581SOL    HW172750   3.240   1.447   1.062
23581SOL    HW272751   3.184   1.309   1.089
23582SOL     OW72752   6.929   5.732   5.756
23582SOL    HW172753   6.923   5.826   5.770
23582SOL    HW272754   7.018   5.709   5.783
23583SOL     OW72755   6.620   1.068   5.384
23583SOL    HW172756   6.614   1.127   5.308
23583SOL    HW272757   6.580   0.986   5.353
23584SOL     OW72758   7.312   2.234   0.808
23584SOL    HW172759   7.373   2.166   0.835
23584SOL    HW272760   7.334   2.250   0.716
23585SOL     OW72761   7.218   7.048   8.085
23585SOL    HW172762   7.260   6.979   8.137
23585SOL    HW272763   7.169   7.100   8.149
23586SOL     OW72764   8.815  10.402   8.901
23586SOL    HW172765   8.736  10.350   8.915
23586SOL    HW272766   8.830  10.446   8.984
23587SOL     OW72767   8.375   7.355   4.950
23587SOL    HW172768   8.458   7.307   4.953
23587SOL    HW272769   8.314   7.299   4.997
23588SOL     OW72770   6.882   4.030   0.852
23588SOL    HW172771   6.864   4.085   0.775
23588SOL    HW272772   6.957   3.976   0.826
23589SOL     OW72773   6.985   0.299   5.658
23589SOL    HW172774   7.003   0.206   5.673
23589SOL    HW272775   7.059   0.344   5.698
23590SOL     OW72776   0.312   1.251   5.434
23590SOL    HW172777   0.221   1.264   5.407
23590SOL    HW272778   0.308   1.239   5.529
23591SOL     OW72779   0.523   8.632   0.367
23591SOL    HW172780   0.449   8.585   0.404
23591SOL    HW272781   0.490   8.720   0.349
23592SOL     OW72782   2.326   2.815   2.403
23592SOL    HW172783   2.237   2.842   2.426
23592SOL    HW272784   2.373   2.812   2.486
23593SOL     OW72785   1.719   3.201   6.863
23593SOL    HW172786   1.629   3.219   6.889
23593SOL    HW272787   1.770   3.210   6.943
23594SOL     OW72788   0.181   8.709   3.441
23594SOL    HW172789   0.146   8.702   3.530
23594SOL    HW272790   0.141   8.635   3.394
23595SOL     OW72791   7.898   9.273   1.310
23595SOL    HW172792   7.843   9.228   1.246
23595SOL    HW272793   7.871   9.237   1.394
23596SOL     OW72794   2.866  10.141   5.997
23596SOL    HW172795   2.952  10.121   5.960
23596SOL    HW272796   2.825  10.198   5.932
23597SOL     OW72797   5.992   1.050   1.585
23597SOL    HW172798   6.059   0.993   1.622
23597SOL    HW272799   6.041   1.119   1.540
23598SOL     OW72800   6.517   0.693   5.756
23598SOL    HW172801   6.489   0.775   5.796
23598SOL    HW272802   6.533   0.634   5.829
23599SOL     OW72803   7.903   7.981   2.511
23599SOL    HW172804   7.827   7.962   2.566
23599SOL    HW272805   7.912   8.076   2.514
23600SOL     OW72806  10.148   5.253   7.824
23600SOL    HW172807  10.237   5.255   7.859
23600SOL    HW272808  10.160   5.235   7.730
23601SOL     OW72809   9.167   2.897   9.652
23601SOL    HW172810   9.187   2.971   9.594
23601SOL    HW272811   9.125   2.936   9.728
23602SOL     OW72812   6.536   5.237   6.019
23602SOL    HW172813   6.512   5.310   5.962
23602SOL    HW272814   6.471   5.238   6.088
23603SOL     OW72815   1.280   6.863   4.850
23603SOL    HW172816   1.268   6.777   4.891
23603SOL    HW272817   1.372   6.864   4.822
23604SOL     OW72818   7.605   0.415   7.730
23604SOL    HW172819   7.558   0.489   7.692
23604SOL    HW272820   7.697   0.439   7.723
23605SOL     OW72821   8.097   2.292   9.997
23605SOL    HW172822   8.021   2.346   9.977
23605SOL    HW272823   8.128   2.262   9.911
23606SOL     OW72824   9.379   6.914   7.018
23606SOL    HW172825   9.431   6.843   7.055
23606SOL    HW272826   9.297   6.872   6.993
23607SOL     OW72827   6.851   8.593   1.707
23607SOL    HW172828   6.917   8.548   1.760
23607SOL    HW272829   6.862   8.685   1.728
23608SOL     OW72830   9.343   5.207   7.761
23608SOL    HW172831   9.282   5.134   7.751
23608SOL    HW272832   9.403   5.179   7.830
23609SOL     OW72833   7.846   0.267   2.588
23609SOL    HW172834   7.793   0.252   2.510
23609SOL    HW272835   7.871   0.359   2.583
23610SOL     OW72836   8.299   2.560   8.625
23610SOL    HW172837   8.276   2.635   8.571
23610SOL    HW272838   8.336   2.497   8.563
23611SOL     OW72839  10.924   0.937   8.419
23611SOL    HW172840  10.982   0.941   8.494
23611SOL    HW272841  10.837   0.951   8.455
23612SOL     OW72842   7.771   3.031  10.923
23612SOL    HW172843   7.811   3.018  11.009
23612SOL    HW272844   7.845   3.038  10.863
23613SOL     OW72845   4.548   2.063   0.197
23613SOL    HW172846   4.611   2.084   0.266
23613SOL    HW272847   4.488   2.000   0.238
23614SOL     OW72848   4.976   1.970   7.082
23614SOL    HW172849   4.981   1.878   7.110
23614SOL    HW272850   4.894   1.976   7.033
23615SOL     OW72851   3.102   2.816   0.902
23615SOL    HW172852   3.126   2.879   0.834
23615SOL    HW272853   3.098   2.732   0.856
23616SOL     OW72854   7.000  11.007  10.274
23616SOL    HW172855   7.093  11.031  10.280
23616SOL    HW272856   6.988  10.942  10.343
23617SOL     OW72857   9.686   9.035   2.282
23617SOL    HW172858   9.709   8.942   2.281
23617SOL    HW272859   9.611   9.041   2.341
23618SOL     OW72860   8.389  10.172   8.497
23618SOL    HW172861   8.470  10.123   8.479
23618SOL    HW272862   8.333  10.108   8.541
23619SOL     OW72863   5.859  10.490   6.616
23619SOL    HW172864   5.950  10.482   6.586
23619SOL    HW272865   5.810  10.430   6.560
23620SOL     OW72866   1.410   3.456   5.422
23620SOL    HW172867   1.405   3.534   5.477
23620SOL    HW272868   1.326   3.412   5.434
23621SOL     OW72869   7.300   5.413   6.541
23621SOL    HW172870   7.356   5.375   6.473
23621SOL    HW272871   7.312   5.507   6.532
23622SOL     OW72872   7.218   2.702   6.873
23622SOL    HW172873   7.137   2.705   6.924
23622SOL    HW272874   7.276   2.764   6.916
23623SOL     OW72875   7.761  10.893   6.022
23623SOL    HW172876   7.785  10.849   6.103
23623SOL    HW272877   7.823  10.859   5.957
23624SOL     OW72878   5.709   7.397   0.149
23624SOL    HW172879   5.697   7.437   0.235
23624SOL    HW272880   5.801   7.369   0.149
23625SOL     OW72881   9.165  10.523   0.340
23625SOL    HW172882   9.101  10.591   0.361
23625SOL    HW272883   9.220  10.562   0.271
23626SOL     OW72884   5.410   8.770   4.256
23626SOL    HW172885   5.408   8.851   4.205
23626SOL    HW272886   5.475   8.715   4.211
23627SOL     OW72887   5.500   0.288   8.120
23627SOL    HW172888   5.433   0.356   8.128
23627SOL    HW272889   5.574   0.321   8.171
23628SOL     OW72890   7.956  10.968   2.326
23628SOL    HW172891   7.936  11.062   2.329
23628SOL    HW272892   8.026  10.956   2.390
23629SOL     OW72893   8.134  10.247   1.871
23629SOL    HW172894   8.180  10.312   1.924
23629SOL    HW272895   8.096  10.297   1.799
23630SOL     OW72896  10.108   1.759   2.891
23630SOL    HW172897  10.023   1.801   2.904
23630SOL    HW272898  10.151   1.811   2.823
23631SOL     OW72899   8.244   5.598   5.614
23631SOL    HW172900   8.257   5.627   5.523
23631SOL    HW272901   8.149   5.591   5.623
23632SOL     OW72902   4.288   5.778   7.685
23632SOL    HW172903   4.207   5.727   7.688
23632SOL    HW272904   4.354   5.716   7.655
23633SOL     OW72905   9.675   9.019   1.834
23633SOL    HW172906   9.686   9.093   1.892
23633SOL    HW272907   9.596   8.975   1.866
23634SOL     OW72908   0.718   3.644   8.743
23634SOL    HW172909   0.625   3.664   8.736
23634SOL    HW272910   0.721   3.549   8.756
23635SOL     OW72911   2.275   3.043   2.645
23635SOL    HW172912   2.258   3.123   2.693
23635SOL    HW272913   2.207   3.040   2.578
23636SOL     OW72914   9.908   9.790   2.167
23636SOL    HW172915   9.949   9.747   2.092
23636SOL    HW272916   9.931   9.882   2.157
23637SOL     OW72917   9.184   0.157   1.399
23637SOL    HW172918   9.223   0.162   1.486
23637SOL    HW272919   9.207   0.069   1.367
23638SOL     OW72920   9.730   9.333  10.000
23638SOL    HW172921   9.822   9.351  10.019
23638SOL    HW272922   9.715   9.375   9.915
23639SOL     OW72923   1.105   8.181   1.245
23639SOL    HW172924   1.079   8.143   1.161
23639SOL    HW272925   1.123   8.273   1.225
23640SOL     OW72926   8.506   0.740   4.305
23640SOL    HW172927   8.505   0.690   4.387
23640SOL    HW272928   8.551   0.682   4.243
23641SOL     OW72929   1.847   4.609   6.587
23641SOL    HW172930   1.925   4.631   6.638
23641SOL    HW272931   1.805   4.538   6.635
23642SOL     OW72932   3.422   5.276   8.464
23642SOL    HW172933   3.349   5.272   8.402
23642SOL    HW272934   3.389   5.326   8.538
23643SOL     OW72935   5.366   2.951   5.284
23643SOL    HW172936   5.446   2.970   5.234
23643SOL    HW272937   5.352   3.029   5.337
23644SOL     OW72938   7.136   9.539   4.981
23644SOL    HW172939   7.065   9.602   4.990
23644SOL    HW272940   7.158   9.541   4.888
23645SOL     OW72941   6.292   3.254  10.329
23645SOL    HW172942   6.329   3.313  10.394
23645SOL    HW272943   6.200   3.279  10.322
23646SOL     OW72944   0.972   5.755   1.345
23646SOL    HW172945   0.878   5.761   1.327
23646SOL    HW272946   0.986   5.811   1.421
23647SOL     OW72947   0.196  10.943   6.935
23647SOL    HW172948   0.287  10.951   6.962
23647SOL    HW272949   0.151  11.014   6.981
23648SOL     OW72950   4.062  10.321   6.535
23648SOL    HW172951   4.145  10.275   6.520
23648SOL    HW272952   4.017  10.268   6.601
23649SOL     OW72953   1.697   2.751   1.717
23649SOL    HW172954   1.612   2.785   1.690
23649SOL    HW272955   1.717   2.798   1.798
23650SOL     OW72956  10.372   5.889   1.825
23650SOL    HW172957  10.280   5.869   1.810
23650SOL    HW272958  10.373   5.936   1.908
23651SOL     OW72959   4.621  10.257   7.978
23651SOL    HW172960   4.600  10.334   7.926
23651SOL    HW272961   4.691  10.213   7.929
23652SOL     OW72962   6.121   2.841   2.242
23652SOL    HW172963   6.054   2.885   2.294
23652SOL    HW272964   6.187   2.813   2.305
23653SOL     OW72965   3.290  10.377   2.613
23653SOL    HW172966   3.351  10.370   2.686
23653SOL    HW272967   3.338  10.342   2.538
23654SOL     OW72968   4.993   7.328   8.873
23654SOL    HW172969   5.073   7.295   8.832
23654SOL    HW272970   4.922   7.285   8.825
23655SOL     OW72971   0.827   3.592  10.928
23655SOL    HW172972   0.733   3.587  10.945
23655SOL    HW272973   0.861   3.649  10.997
23656SOL     OW72974   9.824   5.485   0.489
23656SOL    HW172975   9.882   5.449   0.421
23656SOL    HW272976   9.834   5.425   0.563
23657SOL     OW72977   5.138   2.197   1.993
23657SOL    HW172978   5.222   2.151   2.002
23657SOL    HW272979   5.073   2.132   2.018
23658SOL     OW72980   7.588   9.745   3.482
23658SOL    HW172981   7.541   9.676   3.529
23658SOL    HW272982   7.672   9.751   3.527
23659SOL     OW72983   3.218  11.082   3.265
23659SOL    HW172984   3.248  11.113   3.179
23659SOL    HW272985   3.259  11.141   3.328
23660SOL     OW72986   7.367   2.757   5.912
23660SOL    HW172987   7.405   2.678   5.873
23660SOL    HW272988   7.288   2.773   5.860
23661SOL     OW72989   7.026   1.972   6.646
23661SOL    HW172990   6.956   2.007   6.591
23661SOL    HW272991   6.983   1.951   6.729
23662SOL     OW72992   9.124   4.878   8.762
23662SOL    HW172993   9.134   4.875   8.667
23662SOL    HW272994   9.133   4.787   8.790
23663SOL     OW72995   6.886   7.499   8.619
23663SOL    HW172996   6.828   7.489   8.543
23663SOL    HW272997   6.864   7.425   8.676
23664SOL     OW72998   1.432   1.995   6.516
23664SOL    HW172999   1.483   1.918   6.490
23664SOL    HW273000   1.377   2.014   6.440
23665SOL     OW73001   5.448   7.908   3.515
23665SOL    HW173002   5.455   7.812   3.522
23665SOL    HW273003   5.509   7.931   3.445
23666SOL     OW73004   5.879   9.029   1.779
23666SOL    HW173005   5.862   9.117   1.811
23666SOL    HW273006   5.834   9.025   1.694
23667SOL     OW73007   4.598   6.013   8.167
23667SOL    HW173008   4.643   6.030   8.084
23667SOL    HW273009   4.635   5.930   8.197
23668SOL     OW73010   5.933   2.764   9.822
23668SOL    HW173011   5.954   2.717   9.741
23668SOL    HW273012   5.850   2.808   9.803
23669SOL     OW73013   3.089   4.740   4.617
23669SOL    HW173014   3.054   4.770   4.700
23669SOL    HW273015   3.112   4.820   4.570
23670SOL     OW73016   2.601   3.049   2.148
23670SOL    HW173017   2.624   2.977   2.089
23670SOL    HW273018   2.534   3.098   2.101
23671SOL     OW73019   5.090   1.352   5.709
23671SOL    HW173020   5.123   1.321   5.624
23671SOL    HW273021   5.063   1.272   5.754
23672SOL     OW73022   8.347   3.965   9.332
23672SOL    HW173023   8.283   4.021   9.375
23672SOL    HW273024   8.332   3.979   9.238
23673SOL     OW73025   4.989   5.116   4.128
23673SOL    HW173026   5.067   5.074   4.165
23673SOL    HW273027   4.939   5.146   4.203
23674SOL     OW73028   7.042   3.002   7.035
23674SOL    HW173029   7.032   3.043   6.949
23674SOL    HW273030   6.957   3.012   7.077
23675SOL     OW73031   8.086  10.418   1.416
23675SOL    HW173032   8.036  10.407   1.496
23675SOL    HW273033   8.082  10.333   1.373
23676SOL     OW73034  10.555   2.114   5.930
23676SOL    HW173035  10.503   2.109   6.010
23676SOL    HW273036  10.540   2.029   5.887
23677SOL     OW73037   8.998   0.029   5.368
23677SOL    HW173038   8.912   0.036   5.326
23677SOL    HW273039   9.051   0.097   5.326
23678SOL     OW73040   4.342   9.298   1.887
23678SOL    HW173041   4.345   9.388   1.920
23678SOL    HW273042   4.425   9.286   1.841
23679SOL     OW73043   7.295   2.621  10.785
23679SOL    HW173044   7.252   2.698  10.748
23679SOL    HW273045   7.313   2.565  10.709
23680SOL     OW73046  10.913   2.041   7.669
23680SOL    HW173047  10.873   2.054   7.755
23680SOL    HW273048  10.920   2.129   7.632
23681SOL     OW73049   8.696   1.976   1.208
23681SOL    HW173050   8.780   1.984   1.161
23681SOL    HW273051   8.703   2.037   1.281
23682SOL     OW73052   6.314   5.512   0.549
23682SOL    HW173053   6.270   5.593   0.524
23682SOL    HW273054   6.385   5.540   0.607
23683SOL     OW73055   0.526   1.476   7.514
23683SOL    HW173056   0.524   1.410   7.444
23683SOL    HW273057   0.587   1.440   7.578
23684SOL     OW73058   7.388   9.164   1.672
23684SOL    HW173059   7.307   9.215   1.667
23684SOL    HW273060   7.439   9.206   1.741
23685SOL     OW73061   2.722   0.287   1.386
23685SOL    HW173062   2.814   0.313   1.376
23685SOL    HW273063   2.698   0.251   1.300
23686SOL     OW73064   4.368   1.744   7.213
23686SOL    HW173065   4.310   1.748   7.136
23686SOL    HW273066   4.452   1.777   7.181
23687SOL     OW73067   7.449   3.524   5.966
23687SOL    HW173068   7.503   3.455   5.927
23687SOL    HW273069   7.372   3.529   5.909
23688SOL     OW73070   9.344  10.495  10.528
23688SOL    HW173071   9.319  10.403  10.517
23688SOL    HW273072   9.266  10.538  10.564
23689SOL     OW73073   5.409   5.062  10.996
23689SOL    HW173074   5.368   4.994  10.942
23689SOL    HW273075   5.502   5.059  10.971
23690SOL     OW73076   6.340   3.159   7.406
23690SOL    HW173077   6.257   3.198   7.379
23690SOL    HW273078   6.334   3.068   7.377
23691SOL     OW73079   8.169   7.011   6.122
23691SOL    HW173080   8.148   7.029   6.213
23691SOL    HW273081   8.115   7.072   6.072
23692SOL     OW73082   5.165   6.451   3.527
23692SOL    HW173083   5.168   6.461   3.432
23692SOL    HW273084   5.250   6.412   3.549
23693SOL     OW73085   8.934   5.058   0.005
23693SOL    HW173086   8.852   5.010   0.014
23693SOL    HW273087   8.927   5.103  -0.079
23694SOL     OW73088   7.711   1.276   7.776
23694SOL    HW173089   7.673   1.190   7.796
23694SOL    HW273090   7.783   1.286   7.838
23695SOL     OW73091   3.539   3.161   3.296
23695SOL    HW173092   3.616   3.105   3.287
23695SOL    HW273093   3.524   3.166   3.390
23696SOL     OW73094   3.435   4.015   8.471
23696SOL    HW173095   3.475   3.940   8.515
23696SOL    HW273096   3.453   4.000   8.378
23697SOL     OW73097   8.350   9.206   0.241
23697SOL    HW173098   8.331   9.247   0.325
23697SOL    HW273099   8.369   9.278   0.182
23698SOL     OW73100   7.232   0.067   6.574
23698SOL    HW173101   7.139   0.087   6.586
23698SOL    HW273102   7.267   0.061   6.663
23699SOL     OW73103   7.595   3.558   3.551
23699SOL    HW173104   7.630   3.612   3.480
23699SOL    HW273105   7.514   3.602   3.577
23700SOL     OW73106   7.645   1.847  10.477
23700SOL    HW173107   7.642   1.755  10.449
23700SOL    HW273108   7.667   1.895  10.397
23701SOL     OW73109   4.057   7.063   8.349
23701SOL    HW173110   4.124   7.006   8.388
23701SOL    HW273111   4.086   7.152   8.369
23702SOL     OW73112   9.598   1.605   1.379
23702SOL    HW173113   9.650   1.574   1.453
23702SOL    HW273114   9.635   1.690   1.357
23703SOL     OW73115   6.257  10.270   7.183
23703SOL    HW173116   6.217  10.188   7.153
23703SOL    HW273117   6.350  10.248   7.195
23704SOL     OW73118   8.626   3.300   5.690
23704SOL    HW173119   8.558   3.301   5.757
23704SOL    HW273120   8.580   3.275   5.609
23705SOL     OW73121   4.069   5.530   5.373
23705SOL    HW173122   4.066   5.447   5.324
23705SOL    HW273123   4.077   5.504   5.464
23706SOL     OW73124  10.149   3.310   8.307
23706SOL    HW173125  10.186   3.223   8.324
23706SOL    HW273126  10.059   3.304   8.339
23707SOL     OW73127   0.806   1.185   7.574
23707SOL    HW173128   0.760   1.121   7.628
23707SOL    HW273129   0.848   1.244   7.636
23708SOL     OW73130   3.456   3.658   3.861
23708SOL    HW173131   3.523   3.605   3.905
23708SOL    HW273132   3.442   3.614   3.777
23709SOL     OW73133  10.145   1.628   1.296
23709SOL    HW173134  10.065   1.678   1.279
23709SOL    HW273135  10.211   1.694   1.317
23710SOL     OW73136   6.434   9.292   3.622
23710SOL    HW173137   6.341   9.290   3.644
23710SOL    HW273138   6.479   9.312   3.704
23711SOL     OW73139  10.208   6.386   3.120
23711SOL    HW173140  10.125   6.344   3.142
23711SOL    HW273141  10.184   6.475   3.097
23712SOL     OW73142   5.004   0.948   0.667
23712SOL    HW173143   4.923   0.908   0.699
23712SOL    HW273144   4.978   0.994   0.587
23713SOL     OW73145   5.696   3.725   1.676
23713SOL    HW173146   5.739   3.651   1.632
23713SOL    HW273147   5.662   3.687   1.757
23714SOL     OW73148   6.552   2.503   9.957
23714SOL    HW173149   6.499   2.565  10.006
23714SOL    HW273150   6.538   2.419  10.000
23715SOL     OW73151   9.467   1.166   2.985
23715SOL    HW173152   9.412   1.240   3.009
23715SOL    HW273153   9.488   1.181   2.893
23716SOL     OW73154   5.216  10.649   2.948
23716SOL    HW173155   5.230  10.632   3.041
23716SOL    HW273156   5.152  10.583   2.921
23717SOL     OW73157  10.883   1.684   4.221
23717SOL    HW173158  10.799   1.681   4.266
23717SOL    HW273159  10.948   1.665   4.289
23718SOL     OW73160   3.577   0.509   1.566
23718SOL    HW173161   3.572   0.553   1.651
23718SOL    HW273162   3.492   0.466   1.556
23719SOL     OW73163   1.891   2.311   2.765
23719SOL    HW173164   1.929   2.322   2.852
23719SOL    HW273165   1.836   2.233   2.772
23720SOL     OW73166   6.292   1.626   5.450
23720SOL    HW173167   6.247   1.686   5.391
23720SOL    HW273168   6.339   1.683   5.511
23721SOL     OW73169   4.605   1.054   5.082
23721SOL    HW173170   4.609   1.143   5.048
23721SOL    HW273171   4.683   1.046   5.137
23722SOL     OW73172   4.592   1.463   3.478
23722SOL    HW173173   4.635   1.383   3.508
23722SOL    HW273174   4.621   1.530   3.540
23723SOL     OW73175   7.823   9.048   8.107
23723SOL    HW173176   7.776   9.088   8.034
23723SOL    HW273177   7.837   9.119   8.168
23724SOL     OW73178   7.943   3.595   7.416
23724SOL    HW173179   7.998   3.529   7.374
23724SOL    HW273180   7.911   3.649   7.343
23725SOL     OW73181   5.523   5.523   4.548
23725SOL    HW173182   5.576   5.458   4.502
23725SOL    HW273183   5.485   5.475   4.621
23726SOL     OW73184   1.981   9.133   7.634
23726SOL    HW173185   2.023   9.065   7.581
23726SOL    HW273186   1.957   9.088   7.715
23727SOL     OW73187   4.865   2.329   3.591
23727SOL    HW173188   4.800   2.293   3.651
23727SOL    HW273189   4.946   2.334   3.642
23728SOL     OW73190   6.588   0.344   4.173
23728SOL    HW173191   6.574   0.413   4.238
23728SOL    HW273192   6.617   0.268   4.224
23729SOL     OW73193   3.969   8.988   6.251
23729SOL    HW173194   3.894   8.942   6.212
23729SOL    HW273195   3.982   9.065   6.195
23730SOL     OW73196   2.817   9.728   9.450
23730SOL    HW173197   2.890   9.689   9.401
23730SOL    HW273198   2.859   9.793   9.507
23731SOL     OW73199  10.931   2.079   5.784
23731SOL    HW173200  10.944   1.984   5.791
23731SOL    HW273201  10.894   2.092   5.696
23732SOL     OW73202  10.787  10.254   9.302
23732SOL    HW173203  10.874  10.233   9.269
23732SOL    HW273204  10.794  10.344   9.332
23733SOL     OW73205   4.020   6.553   7.434
23733SOL    HW173206   3.925   6.558   7.430
23733SOL    HW273207   4.038   6.466   7.470
23734SOL     OW73208   2.462   7.595   7.596
23734SOL    HW173209   2.368   7.608   7.587
23734SOL    HW273210   2.495   7.597   7.506
23735SOL     OW73211   3.126   3.964   2.026
23735SOL    HW173212   3.066   4.035   2.005
23735SOL    HW273213   3.206   3.985   1.978
23736SOL     OW73214   6.222   9.779   1.126
23736SOL    HW173215   6.190   9.713   1.063
23736SOL    HW273216   6.147   9.798   1.181
23737SOL     OW73217   6.486   3.485  10.584
23737SOL    HW173218   6.552   3.483  10.653
23737SOL    HW273219   6.424   3.416  10.608
23738SOL     OW73220   8.102   1.527   9.527
23738SOL    HW173221   8.182   1.553   9.481
23738SOL    HW273222   8.064   1.459   9.471
23739SOL     OW73223   3.735   6.343   8.716
23739SOL    HW173224   3.669   6.297   8.664
23739SOL    HW273225   3.806   6.279   8.726
23740SOL     OW73226   6.709   0.785  10.606
23740SOL    HW173227   6.726   0.692  10.591
23740SOL    HW273228   6.642   0.786  10.674
23741SOL     OW73229   4.204   0.304   1.330
23741SOL    HW173230   4.256   0.253   1.267
23741SOL    HW273231   4.170   0.377   1.278
23742SOL     OW73232   6.973   4.803  10.011
23742SOL    HW173233   6.892   4.800  10.061
23742SOL    HW273234   7.041   4.774  10.072
23743SOL     OW73235   5.350   2.154  10.659
23743SOL    HW173236   5.325   2.115  10.575
23743SOL    HW273237   5.382   2.241  10.636
23744SOL     OW73238   1.669   6.202   5.552
23744SOL    HW173239   1.662   6.108   5.532
23744SOL    HW273240   1.579   6.231   5.564
23745SOL     OW73241   5.124   4.147   4.235
23745SOL    HW173242   5.133   4.120   4.143
23745SOL    HW273243   5.104   4.066   4.282
23746SOL     OW73244   3.872   8.986   3.982
23746SOL    HW173245   3.923   8.915   4.021
23746SOL    HW273246   3.781   8.959   3.994
23747SOL     OW73247   8.227   3.022   5.069
23747SOL    HW173248   8.234   3.050   5.160
23747SOL    HW273249   8.135   3.036   5.046
23748SOL     OW73250   6.932   9.718   6.818
23748SOL    HW173251   7.003   9.687   6.874
23748SOL    HW273252   6.931   9.812   6.831
23749SOL     OW73253   3.618   4.684   5.100
23749SOL    HW173254   3.673   4.726   5.165
23749SOL    HW273255   3.543   4.742   5.090
23750SOL     OW73256   5.426   9.003   5.704
23750SOL    HW173257   5.474   8.982   5.784
23750SOL    HW273258   5.486   9.059   5.654
23751SOL     OW73259   6.073   1.932   9.179
23751SOL    HW173260   6.090   2.023   9.203
23751SOL    HW273261   5.998   1.936   9.119
23752SOL     OW73262   8.232   8.533   2.859
23752SOL    HW173263   8.220   8.466   2.791
23752SOL    HW273264   8.325   8.529   2.880
23753SOL     OW73265  10.365   9.719   3.555
23753SOL    HW173266  10.449   9.690   3.591
23753SOL    HW273267  10.309   9.731   3.631
23754SOL     OW73268   3.502  10.611   4.231
23754SOL    HW173269   3.488  10.647   4.143
23754SOL    HW273270   3.428  10.642   4.282
23755SOL     OW73271  10.374   3.664   5.240
23755SOL    HW173272  10.419   3.584   5.268
23755SOL    HW273273  10.282   3.646   5.257
23756SOL     OW73274   1.257   3.858   1.099
23756SOL    HW173275   1.218   3.889   1.017
23756SOL    HW273276   1.304   3.934   1.133
23757SOL     OW73277   6.552   2.392   8.245
23757SOL    HW173278   6.472   2.360   8.287
23757SOL    HW273279   6.521   2.453   8.178
23758SOL     OW73280   6.073   5.999   5.770
23758SOL    HW173281   6.051   5.936   5.839
23758SOL    HW273282   6.158   5.969   5.737
23759SOL     OW73283   8.612   4.187   0.932
23759SOL    HW173284   8.576   4.200   0.844
23759SOL    HW273285   8.700   4.224   0.927
23760SOL     OW73286   3.194   2.701   3.007
23760SOL    HW173287   3.133   2.648   2.955
23760SOL    HW273288   3.238   2.638   3.064
23761SOL     OW73289   9.680   8.428   1.294
23761SOL    HW173290   9.602   8.473   1.264
23761SOL    HW273291   9.669   8.422   1.389
23762SOL     OW73292   3.039   0.479   4.725
23762SOL    HW173293   3.065   0.571   4.722
23762SOL    HW273294   2.988   0.471   4.805
23763SOL     OW73295   1.587   0.929   5.799
23763SOL    HW173296   1.642   0.910   5.722
23763SOL    HW273297   1.598   1.023   5.813
23764SOL     OW73298   6.971   1.993   9.682
23764SOL    HW173299   6.893   1.983   9.627
23764SOL    HW273300   7.044   1.987   9.620
23765SOL     OW73301   9.502   7.174   6.952
23765SOL    HW173302   9.465   7.085   6.953
23765SOL    HW273303   9.504   7.197   6.859
23766SOL     OW73304   8.203   6.455   8.159
23766SOL    HW173305   8.246   6.538   8.176
23766SOL    HW273306   8.221   6.402   8.236
23767SOL     OW73307   7.837   0.192   7.433
23767SOL    HW173308   7.912   0.245   7.406
23767SOL    HW273309   7.858   0.164   7.522
23768SOL     OW73310   7.687   9.329   6.032
23768SOL    HW173311   7.632   9.366   5.963
23768SOL    HW273312   7.633   9.333   6.110
23769SOL     OW73313   9.855   7.232   4.678
23769SOL    HW173314   9.845   7.271   4.765
23769SOL    HW273315   9.905   7.296   4.628
23770SOL     OW73316   0.905   6.278   5.517
23770SOL    HW173317   0.998   6.277   5.493
23770SOL    HW273318   0.885   6.370   5.533
23771SOL     OW73319  11.051   7.001   3.498
23771SOL    HW173320  11.111   6.955   3.439
23771SOL    HW273321  11.006   7.064   3.442
23772SOL     OW73322   8.859   9.179   7.594
23772SOL    HW173323   8.819   9.111   7.648
23772SOL    HW273324   8.789   9.243   7.580
23773SOL     OW73325   2.058   5.368   5.656
23773SOL    HW173326   2.044   5.383   5.749
23773SOL    HW273327   2.128   5.429   5.632
23774SOL     OW73328   0.752   3.554   5.540
23774SOL    HW173329   0.758   3.646   5.565
23774SOL    HW273330   0.660   3.531   5.555
23775SOL     OW73331   9.169   9.779   7.238
23775SOL    HW173332   9.219   9.832   7.176
23775SOL    HW273333   9.235   9.738   7.294
23776SOL     OW73334   6.321   4.916   4.943
23776SOL    HW173335   6.247   4.881   4.892
23776SOL    HW273336   6.326   4.859   5.020
23777SOL     OW73337   4.184   2.535   2.984
23777SOL    HW173338   4.275   2.528   2.955
23777SOL    HW273339   4.133   2.528   2.903
23778SOL     OW73340   7.776   2.758   2.929
23778SOL    HW173341   7.694   2.743   2.881
23778SOL    HW273342   7.825   2.818   2.873
23779SOL     OW73343   9.730   1.266   5.119
23779SOL    HW173344   9.655   1.304   5.164
23779SOL    HW273345   9.773   1.211   5.185
23780SOL     OW73346   6.373   1.183   8.075
23780SOL    HW173347   6.371   1.239   7.997
23780SOL    HW273348   6.324   1.104   8.049
23781SOL     OW73349   1.306   8.977  10.921
23781SOL    HW173350   1.305   8.882  10.909
23781SOL    HW273351   1.259   8.991  11.003
23782SOL     OW73352   2.491   6.199   3.010
23782SOL    HW173353   2.495   6.288   2.975
23782SOL    HW273354   2.580   6.181   3.041
23783SOL     OW73355   6.321   1.724   3.924
23783SOL    HW173356   6.412   1.737   3.897
23783SOL    HW273357   6.278   1.690   3.845
23784SOL     OW73358   5.848   5.473   2.934
23784SOL    HW173359   5.812   5.400   2.985
23784SOL    HW273360   5.941   5.453   2.926
23785SOL     OW73361   9.735   7.399   3.575
23785SOL    HW173362   9.715   7.351   3.655
23785SOL    HW273363   9.831   7.400   3.571
23786SOL     OW73364   9.423   6.610  10.266
23786SOL    HW173365   9.463   6.542  10.211
23786SOL    HW273366   9.378   6.561  10.335
23787SOL     OW73367   7.200   0.492   3.651
23787SOL    HW173368   7.209   0.572   3.702
23787SOL    HW273369   7.264   0.432   3.689
23788SOL     OW73370   5.971   1.102   2.657
23788SOL    HW173371   5.987   1.196   2.661
23788SOL    HW273372   6.016   1.067   2.734
23789SOL     OW73373   6.225   0.363   9.697
23789SOL    HW173374   6.241   0.279   9.741
23789SOL    HW273375   6.278   0.358   9.617
23790SOL     OW73376   9.741   5.965   8.780
23790SOL    HW173377   9.749   5.954   8.874
23790SOL    HW273378   9.756   6.058   8.765
23791SOL     OW73379   9.740   9.920   6.727
23791SOL    HW173380   9.834   9.937   6.726
23791SOL    HW273381   9.700  10.006   6.740
23792SOL     OW73382   9.494   0.809   9.404
23792SOL    HW173383   9.437   0.734   9.387
23792SOL    HW273384   9.467   0.875   9.340
23793SOL     OW73385   1.182   6.863   7.154
23793SOL    HW173386   1.143   6.934   7.104
23793SOL    HW273387   1.121   6.847   7.226
23794SOL     OW73388   6.424   1.413   5.779
23794SOL    HW173389   6.371   1.346   5.822
23794SOL    HW273390   6.396   1.410   5.687
23795SOL     OW73391   3.209  10.443   3.070
23795SOL    HW173392   3.175  10.479   2.988
23795SOL    HW273393   3.149  10.474   3.137
23796SOL     OW73394   4.785   0.130   1.653
23796SOL    HW173395   4.707   0.102   1.605
23796SOL    HW273396   4.751   0.174   1.731
23797SOL     OW73397   3.313  10.147   1.751
23797SOL    HW173398   3.384  10.193   1.795
23797SOL    HW273399   3.250  10.215   1.729
23798SOL     OW73400  10.568   2.421   9.108
23798SOL    HW173401  10.574   2.478   9.184
23798SOL    HW273402  10.583   2.333   9.142
23799SOL     OW73403   8.180   4.292   8.776
23799SOL    HW173404   8.142   4.263   8.859
23799SOL    HW273405   8.260   4.338   8.801
23800SOL     OW73406   7.528   5.165   0.901
23800SOL    HW173407   7.492   5.104   0.836
23800SOL    HW273408   7.572   5.232   0.849
23801SOL     OW73409   3.662   1.188   2.017
23801SOL    HW173410   3.742   1.236   2.040
23801SOL    HW273411   3.681   1.150   1.931
23802SOL     OW73412   1.528  10.279   5.429
23802SOL    HW173413   1.573  10.335   5.492
23802SOL    HW273414   1.452  10.245   5.476
23803SOL     OW73415   3.036   0.127   9.347
23803SOL    HW173416   3.014   0.051   9.401
23803SOL    HW273417   2.952   0.169   9.329
23804SOL     OW73418   4.291   8.723   8.225
23804SOL    HW173419   4.259   8.746   8.312
23804SOL    HW273420   4.346   8.797   8.199
23805SOL     OW73421   5.230   6.804   9.932
23805SOL    HW173422   5.205   6.728   9.879
23805SOL    HW273423   5.292   6.852   9.877
23806SOL     OW73424   5.187   4.452   3.790
23806SOL    HW173425   5.271   4.453   3.835
23806SOL    HW273426   5.138   4.525   3.828
23807SOL     OW73427   2.804   5.115  10.834
23807SOL    HW173428   2.876   5.109  10.897
23807SOL    HW273429   2.840   5.167  10.762
23808SOL     OW73430   3.914   3.225   0.592
23808SOL    HW173431   3.885   3.290   0.655
23808SOL    HW273432   3.974   3.272   0.534
23809SOL     OW73433   4.726   2.652   6.572
23809SOL    HW173434   4.762   2.728   6.526
23809SOL    HW273435   4.657   2.620   6.514
23810SOL     OW73436   0.318   3.383   8.628
23810SOL    HW173437   0.341   3.406   8.718
23810SOL    HW273438   0.400   3.392   8.579
23811SOL     OW73439   8.550   2.680   9.690
23811SOL    HW173440   8.590   2.652   9.772
23811SOL    HW273441   8.553   2.775   9.693
23812SOL     OW73442   4.372  10.557   3.816
23812SOL    HW173443   4.412  10.497   3.753
23812SOL    HW273444   4.429  10.634   3.815
23813SOL     OW73445   0.064   5.657   8.199
23813SOL    HW173446   0.125   5.625   8.265
23813SOL    HW273447   0.113   5.721   8.149
23814SOL     OW73448  10.013   7.483   3.840
23814SOL    HW173449  10.098   7.456   3.805
23814SOL    HW273450   9.957   7.407   3.825
23815SOL     OW73451   1.564   1.449   1.963
23815SOL    HW173452   1.491   1.506   1.941
23815SOL    HW273453   1.564   1.382   1.894
23816SOL     OW73454   0.163   1.098   6.991
23816SOL    HW173455   0.208   1.151   6.926
23816SOL    HW273456   0.070   1.115   6.975
23817SOL     OW73457   8.540   1.390   9.566
23817SOL    HW173458   8.521   1.348   9.482
23817SOL    HW273459   8.595   1.326   9.612
23818SOL     OW73460   7.018   9.843   1.567
23818SOL    HW173461   7.051   9.815   1.481
23818SOL    HW273462   7.000   9.761   1.613
23819SOL     OW73463   7.508   4.777   9.407
23819SOL    HW173464   7.543   4.699   9.451
23819SOL    HW273465   7.519   4.758   9.313
23820SOL     OW73466   2.422   1.647   4.491
23820SOL    HW173467   2.381   1.728   4.520
23820SOL    HW273468   2.358   1.607   4.432
23821SOL     OW73469   8.468   2.994   7.910
23821SOL    HW173470   8.434   2.956   7.829
23821SOL    HW273471   8.562   3.005   7.894
23822SOL     OW73472  10.076   2.497   0.930
23822SOL    HW173473   9.984   2.523   0.925
23822SOL    HW273474  10.085   2.456   1.016
23823SOL     OW73475   1.761   3.610   7.910
23823SOL    HW173476   1.800   3.543   7.854
23823SOL    HW273477   1.667   3.593   7.905
23824SOL     OW73478   2.758   0.899   4.449
23824SOL    HW173479   2.812   0.957   4.503
23824SOL    HW273480   2.820   0.836   4.412
23825SOL     OW73481   8.261   2.404   5.683
23825SOL    HW173482   8.284   2.334   5.621
23825SOL    HW273483   8.198   2.458   5.635
23826SOL     OW73484   7.344   2.856   0.048
23826SOL    HW173485   7.401   2.870  -0.027
23826SOL    HW273486   7.320   2.763   0.043
23827SOL     OW73487   3.701   2.244   6.419
23827SOL    HW173488   3.678   2.332   6.448
23827SOL    HW273489   3.725   2.197   6.499
23828SOL     OW73490   3.547   6.184  10.972
23828SOL    HW173491   3.609   6.225  11.032
23828SOL    HW273492   3.492   6.255  10.941
23829SOL     OW73493   7.093   5.456   8.510
23829SOL    HW173494   7.026   5.388   8.497
23829SOL    HW273495   7.157   5.415   8.568
23830SOL     OW73496  10.622   8.024   9.687
23830SOL    HW173497  10.546   8.004   9.633
23830SOL    HW273498  10.683   8.067   9.627
23831SOL     OW73499   3.773   8.791   8.088
23831SOL    HW173500   3.833   8.736   8.037
23831SOL    HW273501   3.755   8.740   8.167
23832SOL     OW73502   9.565   4.603   9.080
23832SOL    HW173503   9.477   4.619   9.114
23832SOL    HW273504   9.585   4.513   9.106
23833SOL     OW73505   4.401   5.691   9.368
23833SOL    HW173506   4.488   5.663   9.340
23833SOL    HW273507   4.417   5.752   9.440
23834SOL     OW73508   2.954   1.081   7.017
23834SOL    HW173509   2.906   1.163   7.008
23834SOL    HW273510   2.903   1.018   6.966
23835SOL     OW73511   2.051   4.918   6.339
23835SOL    HW173512   2.078   4.920   6.247
23835SOL    HW273513   2.131   4.940   6.387
23836SOL     OW73514   3.595   6.731   2.595
23836SOL    HW173515   3.571   6.690   2.678
23836SOL    HW273516   3.542   6.685   2.529
23837SOL     OW73517   2.626   4.298   6.963
23837SOL    HW173518   2.671   4.369   7.009
23837SOL    HW273519   2.694   4.257   6.910
23838SOL     OW73520   9.318   8.486   6.425
23838SOL    HW173521   9.392   8.546   6.434
23838SOL    HW273522   9.252   8.537   6.378
23839SOL     OW73523   6.634   1.331   7.555
23839SOL    HW173524   6.692   1.397   7.517
23839SOL    HW273525   6.594   1.374   7.630
23840SOL     OW73526   6.131  10.657   5.738
23840SOL    HW173527   6.188  10.720   5.783
23840SOL    HW273528   6.191  10.606   5.683
23841SOL     OW73529   2.030   7.585   0.637
23841SOL    HW173530   2.056   7.668   0.675
23841SOL    HW273531   2.016   7.527   0.712
23842SOL     OW73532   7.249   9.039   8.770
23842SOL    HW173533   7.224   8.947   8.762
23842SOL    HW273534   7.212   9.067   8.853
23843SOL     OW73535   5.239   1.769   4.081
23843SOL    HW173536   5.296   1.732   4.148
23843SOL    HW273537   5.212   1.693   4.029
23844SOL     OW73538   4.408   2.341   8.487
23844SOL    HW173539   4.487   2.328   8.540
23844SOL    HW273540   4.386   2.253   8.455
23845SOL     OW73541   4.214   8.434   8.820
23845SOL    HW173542   4.154   8.456   8.749
23845SOL    HW273543   4.237   8.342   8.804
23846SOL     OW73544   7.828   4.039   7.181
23846SOL    HW173545   7.744   4.085   7.188
23846SOL    HW273546   7.880   4.093   7.121
23847SOL     OW73547   2.658  10.225   5.089
23847SOL    HW173548   2.640  10.203   4.997
23847SOL    HW273549   2.588  10.182   5.138
23848SOL     OW73550   7.398   1.385   4.843
23848SOL    HW173551   7.416   1.402   4.750
23848SOL    HW273552   7.390   1.471   4.883
23849SOL     OW73553   8.770   4.776   3.347
23849SOL    HW173554   8.712   4.851   3.353
23849SOL    HW273555   8.762   4.746   3.256
23850SOL     OW73556   1.486   8.041   9.428
23850SOL    HW173557   1.562   8.065   9.374
23850SOL    HW273558   1.432   8.120   9.431
23851SOL     OW73559   6.407   0.703   3.875
23851SOL    HW173560   6.389   0.629   3.933
23851SOL    HW273561   6.476   0.752   3.919
23852SOL     OW73562   0.038  10.041   6.755
23852SOL    HW173563  -0.049  10.065   6.788
23852SOL    HW273564   0.025  10.028   6.661
23853SOL     OW73565   4.317   2.502   1.308
23853SOL    HW173566   4.234   2.461   1.331
23853SOL    HW273567   4.293   2.589   1.276
23854SOL     OW73568   6.936   0.985   0.427
23854SOL    HW173569   6.955   0.953   0.339
23854SOL    HW273570   6.855   0.940   0.452
23855SOL     OW73571   3.010   2.593   2.852
23855SOL    HW173572   2.992   2.642   2.772
23855SOL    HW273573   2.969   2.507   2.837
23856SOL     OW73574   8.633   8.804   3.076
23856SOL    HW173575   8.687   8.795   2.997
23856SOL    HW273576   8.625   8.898   3.089
23857SOL     OW73577   4.797  10.554   5.641
23857SOL    HW173578   4.881  10.600   5.641
23857SOL    HW273579   4.810  10.482   5.579
23858SOL     OW73580  10.911   6.574   8.502
23858SOL    HW173581  10.860   6.508   8.455
23858SOL    HW273582  10.952   6.626   8.433
23859SOL     OW73583   5.980   9.569   1.974
23859SOL    HW173584   5.926   9.636   1.933
23859SOL    HW273585   5.952   9.568   2.065
23860SOL     OW73586   4.975   1.952   3.380
23860SOL    HW173587   5.001   2.002   3.302
23860SOL    HW273588   4.896   1.996   3.412
23861SOL     OW73589   5.455   5.928  10.489
23861SOL    HW173590   5.464   5.879  10.571
23861SOL    HW273591   5.537   5.977  10.481
23862SOL     OW73592   6.445   4.261   8.959
23862SOL    HW173593   6.381   4.323   8.925
23862SOL    HW273594   6.397   4.210   9.024
23863SOL     OW73595   0.905   6.557   2.571
23863SOL    HW173596   0.949   6.557   2.656
23863SOL    HW273597   0.842   6.485   2.576
23864SOL     OW73598   4.756   8.703   6.108
23864SOL    HW173599   4.704   8.773   6.069
23864SOL    HW273600   4.846   8.724   6.084
23865SOL     OW73601   1.110  10.968   8.533
23865SOL    HW173602   1.148  11.056   8.529
23865SOL    HW273603   1.024  10.978   8.492
23866SOL     OW73604   1.984   0.548  10.800
23866SOL    HW173605   2.013   0.595  10.722
23866SOL    HW273606   2.013   0.458  10.786
23867SOL     OW73607   9.887   3.827   5.432
23867SOL    HW173608   9.878   3.892   5.362
23867SOL    HW273609   9.975   3.791   5.420
23868SOL     OW73610   6.290   4.152  10.130
23868SOL    HW173611   6.244   4.096  10.067
23868SOL    HW273612   6.309   4.093  10.203
23869SOL     OW73613   8.134   8.343   6.517
23869SOL    HW173614   8.088   8.300   6.589
23869SOL    HW273615   8.182   8.272   6.474
23870SOL     OW73616   3.400   2.417   7.673
23870SOL    HW173617   3.374   2.399   7.582
23870SOL    HW273618   3.390   2.333   7.718
23871SOL     OW73619   8.085   2.316  10.275
23871SOL    HW173620   8.028   2.390  10.296
23871SOL    HW273621   8.077   2.306  10.180
23872SOL     OW73622   6.758   9.709   2.669
23872SOL    HW173623   6.704   9.788   2.666
23872SOL    HW273624   6.740   9.671   2.755
23873SOL     OW73625   3.113   1.156   1.968
23873SOL    HW173626   3.035   1.103   1.986
23873SOL    HW273627   3.101   1.187   1.878
23874SOL     OW73628   4.147   1.827   9.031
23874SOL    HW173629   4.132   1.734   9.048
23874SOL    HW273630   4.242   1.836   9.032
23875SOL     OW73631   6.769   3.940   8.910
23875SOL    HW173632   6.845   3.932   8.852
23875SOL    HW273633   6.755   4.034   8.919
23876SOL     OW73634   9.516  10.241   3.022
23876SOL    HW173635   9.611  10.249   3.021
23876SOL    HW273636   9.500  10.148   3.006
23877SOL     OW73637   8.201   7.672   1.355
23877SOL    HW173638   8.254   7.609   1.404
23877SOL    HW273639   8.167   7.621   1.281
23878SOL     OW73640   1.778   5.790   6.469
23878SOL    HW173641   1.704   5.847   6.488
23878SOL    HW273642   1.829   5.789   6.550
23879SOL     OW73643   5.629   2.450   5.204
23879SOL    HW173644   5.603   2.366   5.164
23879SOL    HW273645   5.567   2.462   5.276
23880SOL     OW73646  10.007   3.144   1.308
23880SOL    HW173647  10.041   3.058   1.281
23880SOL    HW273648   9.957   3.174   1.232
23881SOL     OW73649   4.541   4.980   7.109
23881SOL    HW173650   4.465   4.975   7.051
23881SOL    HW273651   4.521   5.052   7.169
23882SOL     OW73652   7.377   8.284   0.515
23882SOL    HW173653   7.397   8.376   0.501
23882SOL    HW273654   7.460   8.245   0.542
23883SOL     OW73655   5.770   1.689   1.714
23883SOL    HW173656   5.753   1.632   1.789
23883SOL    HW273657   5.769   1.778   1.749
23884SOL     OW73658   8.495   8.280   6.482
23884SOL    HW173659   8.472   8.246   6.395
23884SOL    HW273660   8.590   8.268   6.488
23885SOL     OW73661   0.413   1.528   8.749
23885SOL    HW173662   0.477   1.489   8.808
23885SOL    HW273663   0.332   1.481   8.767
23886SOL     OW73664  10.990   2.535  10.383
23886SOL    HW173665  11.066   2.593  10.376
23886SOL    HW273666  10.963   2.541  10.474
23887SOL     OW73667   7.300  10.213   8.185
23887SOL    HW173668   7.218  10.172   8.211
23887SOL    HW273669   7.284  10.307   8.194
23888SOL     OW73670   1.629  11.078  10.582
23888SOL    HW173671   1.696  11.131  10.539
23888SOL    HW273672   1.666  11.057  10.667
23889SOL     OW73673   4.076   1.338   1.748
23889SOL    HW173674   4.143   1.375   1.805
23889SOL    HW273675   4.066   1.247   1.778
23890SOL     OW73676   1.865   2.737   8.417
23890SOL    HW173677   1.875   2.825   8.382
23890SOL    HW273678   1.812   2.748   8.496
23891SOL     OW73679   9.110   6.943   0.819
23891SOL    HW173680   9.126   6.977   0.731
23891SOL    HW273681   9.081   7.019   0.869
23892SOL     OW73682   6.594   8.816   7.274
23892SOL    HW173683   6.634   8.729   7.263
23892SOL    HW273684   6.660   8.877   7.241
23893SOL     OW73685   8.862   3.853   6.346
23893SOL    HW173686   8.893   3.943   6.354
23893SOL    HW273687   8.787   3.858   6.287
23894SOL     OW73688   6.650  10.985  10.420
23894SOL    HW173689   6.697  10.903  10.403
23894SOL    HW273690   6.608  11.006  10.336
23895SOL     OW73691   9.382   1.865   5.016
23895SOL    HW173692   9.357   1.912   5.095
23895SOL    HW273693   9.455   1.915   4.980
23896SOL     OW73694   1.885   6.325   3.260
23896SOL    HW173695   1.931   6.243   3.241
23896SOL    HW273696   1.798   6.298   3.288
23897SOL     OW73697   5.944   3.203   4.380
23897SOL    HW173698   5.977   3.290   4.357
23897SOL    HW273699   5.856   3.219   4.415
23898SOL     OW73700   3.937   9.975   4.003
23898SOL    HW173701   4.019  10.008   3.966
23898SOL    HW273702   3.869  10.027   3.960
23899SOL     OW73703   8.108   4.068   8.613
23899SOL    HW173704   8.054   4.102   8.542
23899SOL    HW273705   8.124   4.143   8.670
23900SOL     OW73706   9.387   1.149   2.198
23900SOL    HW173707   9.423   1.236   2.215
23900SOL    HW273708   9.294   1.157   2.220
23901SOL     OW73709   4.315   0.742   8.651
23901SOL    HW173710   4.234   0.791   8.658
23901SOL    HW273711   4.355   0.748   8.737
23902SOL     OW73712   5.824   1.929   1.886
23902SOL    HW173713   5.737   1.965   1.902
23902SOL    HW273714   5.869   1.937   1.970
23903SOL     OW73715   2.771   6.325   1.980
23903SOL    HW173716   2.752   6.385   1.908
23903SOL    HW273717   2.692   6.272   1.989
23904SOL     OW73718   8.353   0.435   1.481
23904SOL    HW173719   8.431   0.438   1.536
23904SOL    HW273720   8.385   0.453   1.392
23905SOL     OW73721   8.739   4.116   3.898
23905SOL    HW173722   8.673   4.117   3.828
23905SOL    HW273723   8.762   4.208   3.911
23906SOL     OW73724   8.405   6.951   2.473
23906SOL    HW173725   8.458   6.942   2.394
23906SOL    HW273726   8.468   6.951   2.545
23907SOL     OW73727   0.056   2.385   6.925
23907SOL    HW173728   0.070   2.383   6.830
23907SOL    HW273729  -0.032   2.422   6.935
23908SOL     OW73730   5.586   2.789   8.947
23908SOL    HW173731   5.573   2.782   8.852
23908SOL    HW273732   5.533   2.864   8.973
23909SOL     OW73733  10.268   7.224   8.487
23909SOL    HW173734  10.320   7.162   8.436
23909SOL    HW273735  10.310   7.308   8.472
23910SOL     OW73736   2.750   9.760   2.723
23910SOL    HW173737   2.806   9.719   2.657
23910SOL    HW273738   2.798   9.838   2.749
23911SOL     OW73739   1.201   7.478   3.838
23911SOL    HW173740   1.218   7.522   3.754
23911SOL    HW273741   1.195   7.385   3.815
23912SOL     OW73742   7.284   2.848  10.475
23912SOL    HW173743   7.341   2.771  10.467
23912SOL    HW273744   7.243   2.838  10.561
23913SOL     OW73745   3.705   3.423   6.398
23913SOL    HW173746   3.672   3.347   6.349
23913SOL    HW273747   3.728   3.388   6.484
23914SOL     OW73748   5.101   2.517   8.813
23914SOL    HW173749   5.184   2.559   8.835
23914SOL    HW273750   5.115   2.482   8.725
23915SOL     OW73751   3.368   0.272   6.665
23915SOL    HW173752   3.373   0.365   6.685
23915SOL    HW273753   3.430   0.230   6.725
23916SOL     OW73754   4.367   9.771   1.613
23916SOL    HW173755   4.401   9.724   1.689
23916SOL    HW273756   4.405   9.725   1.537
23917SOL     OW73757   7.055   2.236   1.966
23917SOL    HW173758   7.082   2.164   2.023
23917SOL    HW273759   6.974   2.205   1.925
23918SOL     OW73760   1.211   9.915   4.322
23918SOL    HW173761   1.252   9.902   4.236
23918SOL    HW273762   1.229   9.833   4.369
23919SOL     OW73763   7.767  10.610  11.044
23919SOL    HW173764   7.704  10.558  11.094
23919SOL    HW273765   7.783  10.687  11.098
23920SOL     OW73766   3.790   0.787   6.583
23920SOL    HW173767   3.727   0.715   6.591
23920SOL    HW273768   3.743   0.854   6.534
23921SOL     OW73769   8.475   6.776  10.351
23921SOL    HW173770   8.555   6.757  10.302
23921SOL    HW273771   8.493   6.859  10.394
23922SOL     OW73772   6.065   6.034   1.711
23922SOL    HW173773   5.971   6.031   1.696
23922SOL    HW273774   6.095   6.109   1.660
23923SOL     OW73775   2.800   6.617   5.210
23923SOL    HW173776   2.864   6.619   5.281
23923SOL    HW273777   2.786   6.524   5.193
23924SOL     OW73778   0.547   5.456   8.380
23924SOL    HW173779   0.477   5.518   8.398
23924SOL    HW273780   0.554   5.455   8.284
23925SOL     OW73781   0.514   0.443   7.650
23925SOL    HW173782   0.575   0.406   7.713
23925SOL    HW273783   0.469   0.512   7.698
23926SOL     OW73784   9.540   6.645   7.533
23926SOL    HW173785   9.564   6.732   7.563
23926SOL    HW273786   9.567   6.643   7.441
23927SOL     OW73787   2.171   0.076   9.710
23927SOL    HW173788   2.160   0.007   9.644
23927SOL    HW273789   2.264   0.074   9.731
23928SOL     OW73790   8.323  10.430   8.489
23928SOL    HW173791   8.251  10.458   8.545
23928SOL    HW273792   8.319  10.334   8.489
23929SOL     OW73793   0.085  10.624   9.933
23929SOL    HW173794   0.046  10.600   9.849
23929SOL    HW273795   0.076  10.719   9.937
23930SOL     OW73796   7.043   3.743   2.859
23930SOL    HW173797   6.976   3.809   2.842
23930SOL    HW273798   7.032   3.720   2.951
23931SOL     OW73799   2.127   2.132  10.716
23931SOL    HW173800   2.118   2.082  10.797
23931SOL    HW273801   2.049   2.109  10.665
23932SOL     OW73802   9.070  11.002   6.010
23932SOL    HW173803   9.083  11.085   6.056
23932SOL    HW273804   9.149  10.991   5.957
23933SOL     OW73805   0.444   8.739  10.967
23933SOL    HW173806   0.538   8.719  10.964
23933SOL    HW273807   0.409   8.679  11.033
23934SOL     OW73808   9.550   4.946   7.854
23934SOL    HW173809   9.466   4.907   7.829
23934SOL    HW273810   9.527   5.012   7.919
23935SOL     OW73811   8.891   9.882  10.407
23935SOL    HW173812   8.800   9.904  10.425
23935SOL    HW273813   8.887   9.793  10.370
23936SOL     OW73814   6.623   1.506   6.763
23936SOL    HW173815   6.554   1.564   6.731
23936SOL    HW273816   6.626   1.521   6.857
23937SOL     OW73817  10.662   7.532  10.217
23937SOL    HW173818  10.748   7.498  10.190
23937SOL    HW273819  10.652   7.613  10.168
23938SOL     OW73820   1.950   1.429   8.617
23938SOL    HW173821   2.024   1.456   8.672
23938SOL    HW273822   1.991   1.389   8.540
23939SOL     OW73823   0.794   7.211   6.796
23939SOL    HW173824   0.719   7.236   6.850
23939SOL    HW273825   0.802   7.281   6.731
23940SOL     OW73826   8.768   0.354   3.237
23940SOL    HW173827   8.683   0.362   3.195
23940SOL    HW273828   8.748   0.342   3.330
23941SOL     OW73829   4.410   1.203   1.069
23941SOL    HW173830   4.436   1.275   1.012
23941SOL    HW273831   4.426   1.235   1.157
23942SOL     OW73832   9.480   0.751   2.709
23942SOL    HW173833   9.433   0.773   2.628
23942SOL    HW273834   9.534   0.675   2.685
23943SOL     OW73835   6.467   2.985   3.442
23943SOL    HW173836   6.410   2.924   3.489
23943SOL    HW273837   6.556   2.953   3.460
23944SOL     OW73838   2.775   1.994   4.503
23944SOL    HW173839   2.776   1.959   4.414
23944SOL    HW273840   2.688   2.031   4.513
23945SOL     OW73841   5.040   9.068   0.598
23945SOL    HW173842   5.133   9.053   0.618
23945SOL    HW273843   5.010   8.986   0.559
23946SOL     OW73844   4.057   7.695   9.626
23946SOL    HW173845   4.049   7.713   9.719
23946SOL    HW273846   4.151   7.689   9.610
23947SOL     OW73847  10.295   8.852   1.684
23947SOL    HW173848  10.353   8.790   1.729
23947SOL    HW273849  10.246   8.798   1.622
23948SOL     OW73850   2.803   2.698   8.530
23948SOL    HW173851   2.716   2.737   8.536
23948SOL    HW273852   2.787   2.603   8.532
23949SOL     OW73853   4.112   1.534   9.097
23949SOL    HW173854   4.018   1.526   9.080
23949SOL    HW273855   4.126   1.486   9.178
23950SOL     OW73856   6.784   8.174  10.795
23950SOL    HW173857   6.830   8.129  10.723
23950SOL    HW273858   6.708   8.214  10.753
23951SOL     OW73859   1.378   4.202   6.917
23951SOL    HW173860   1.368   4.293   6.890
23951SOL    HW273861   1.314   4.154   6.864
23952SOL     OW73862   9.986   0.932   5.232
23952SOL    HW173863   9.975   0.926   5.137
23952SOL    HW273864   9.906   0.894   5.268
23953SOL     OW73865   7.127   6.330   7.145
23953SOL    HW173866   7.185   6.319   7.221
23953SOL    HW273867   7.187   6.339   7.070
23954SOL     OW73868   5.596   1.984   9.331
23954SOL    HW173869   5.631   2.022   9.250
23954SOL    HW273870   5.505   1.965   9.310
23955SOL     OW73871   6.376   0.140   0.705
23955SOL    HW173872   6.303   0.179   0.751
23955SOL    HW273873   6.336   0.097   0.629
23956SOL     OW73874   6.675   3.537   0.240
23956SOL    HW173875   6.664   3.481   0.317
23956SOL    HW273876   6.647   3.623   0.269
23957SOL     OW73877   7.241   9.298   7.119
23957SOL    HW173878   7.293   9.220   7.098
23957SOL    HW273879   7.304   9.359   7.158
23958SOL     OW73880   4.470   0.984   4.665
23958SOL    HW173881   4.414   1.022   4.733
23958SOL    HW273882   4.500   1.059   4.614
23959SOL     OW73883   6.697   9.977   7.630
23959SOL    HW173884   6.740   9.925   7.562
23959SOL    HW273885   6.632   9.917   7.667
23960SOL     OW73886   2.846   3.414  11.097
23960SOL    HW173887   2.808   3.468  11.028
23960SOL    HW273888   2.822   3.457  11.179
23961SOL     OW73889   6.996   0.194   4.524
23961SOL    HW173890   7.062   0.213   4.590
23961SOL    HW273891   6.959   0.279   4.501
23962SOL     OW73892   7.281   1.780   4.631
23962SOL    HW173893   7.330   1.856   4.662
23962SOL    HW273894   7.319   1.706   4.679
23963SOL     OW73895   7.938   4.189   0.826
23963SOL    HW173896   8.019   4.177   0.776
23963SOL    HW273897   7.877   4.125   0.789
23964SOL     OW73898   5.575   0.532   7.095
23964SOL    HW173899   5.667   0.556   7.103
23964SOL    HW273900   5.575   0.456   7.036
23965SOL     OW73901   3.008   4.645   9.179
23965SOL    HW173902   2.984   4.567   9.129
23965SOL    HW273903   3.061   4.697   9.118
23966SOL     OW73904   6.607   1.605   8.754
23966SOL    HW173905   6.531   1.652   8.719
23966SOL    HW273906   6.674   1.614   8.686
23967SOL     OW73907   2.727   0.676   9.056
23967SOL    HW173908   2.700   0.757   9.013
23967SOL    HW273909   2.793   0.703   9.120
23968SOL     OW73910   3.444   9.357   5.336
23968SOL    HW173911   3.352   9.346   5.359
23968SOL    HW273912   3.456   9.300   5.260
23969SOL     OW73913   2.654   2.844   3.951
23969SOL    HW173914   2.743   2.877   3.963
23969SOL    HW273915   2.665   2.764   3.898
23970SOL     OW73916   8.539   7.930   6.248
23970SOL    HW173917   8.590   7.876   6.188
23970SOL    HW273918   8.450   7.894   6.243
23971SOL     OW73919  10.751   9.615   3.281
23971SOL    HW173920  10.806   9.693   3.276
23971SOL    HW273921  10.697   9.629   3.359
23972SOL     OW73922   7.272   3.332   8.077
23972SOL    HW173923   7.181   3.341   8.104
23972SOL    HW273924   7.322   3.339   8.158
23973SOL     OW73925   7.522   0.664   4.281
23973SOL    HW173926   7.490   0.603   4.347
23973SOL    HW273927   7.492   0.750   4.310
23974SOL     OW73928   7.593   8.173   9.051
23974SOL    HW173929   7.624   8.163   8.960
23974SOL    HW273930   7.512   8.122   9.054
23975SOL     OW73931   8.702   2.818   8.066
23975SOL    HW173932   8.742   2.733   8.045
23975SOL    HW273933   8.694   2.862   7.981
23976SOL     OW73934  10.575  10.810   3.164
23976SOL    HW173935  10.554  10.735   3.219
23976SOL    HW273936  10.532  10.791   3.080
23977SOL     OW73937   7.921   5.971   8.800
23977SOL    HW173938   8.004   6.017   8.814
23977SOL    HW273939   7.904   5.980   8.706
23978SOL     OW73940   8.668   5.393   8.243
23978SOL    HW173941   8.617   5.316   8.269
23978SOL    HW273942   8.732   5.404   8.313
23979SOL     OW73943   6.764   2.756   0.763
23979SOL    HW173944   6.707   2.744   0.687
23979SOL    HW273945   6.778   2.667   0.796
23980SOL     OW73946   8.634  11.066   9.030
23980SOL    HW173947   8.605  10.976   9.046
23980SOL    HW273948   8.728  11.065   9.049
23981SOL     OW73949   5.483   5.740   5.059
23981SOL    HW173950   5.550   5.786   5.109
23981SOL    HW273951   5.462   5.663   5.111
23982SOL     OW73952   8.720  10.101   9.203
23982SOL    HW173953   8.723  10.008   9.181
23982SOL    HW273954   8.682  10.104   9.291
23983SOL     OW73955   0.610   2.172  11.096
23983SOL    HW173956   0.611   2.114  11.020
23983SOL    HW273957   0.696   2.215  11.094
23984SOL     OW73958   8.121   3.330   5.904
23984SOL    HW173959   8.130   3.344   5.998
23984SOL    HW273960   8.032   3.360   5.884
23985SOL     OW73961   7.759   2.939   5.277
23985SOL    HW173962   7.786   3.016   5.325
23985SOL    HW273963   7.706   2.973   5.205
23986SOL     OW73964   8.611   8.747   9.279
23986SOL    HW173965   8.572   8.821   9.232
23986SOL    HW273966   8.557   8.672   9.254
23987SOL     OW73967   6.538   6.253   7.890
23987SOL    HW173968   6.569   6.309   7.961
23987SOL    HW273969   6.470   6.304   7.847
23988SOL     OW73970   9.964  11.058   7.658
23988SOL    HW173971   9.999  11.127   7.715
23988SOL    HW273972  10.042  11.011   7.627
23989SOL     OW73973  10.430   1.012   8.396
23989SOL    HW173974  10.408   1.038   8.485
23989SOL    HW273975  10.346   1.002   8.352
23990SOL     OW73976   4.353   6.179   0.497
23990SOL    HW173977   4.266   6.187   0.537
23990SOL    HW273978   4.358   6.252   0.435
23991SOL     OW73979   6.122   4.408   5.114
23991SOL    HW173980   6.101   4.452   5.196
23991SOL    HW273981   6.142   4.318   5.139
23992SOL     OW73982   6.658  11.027   2.179
23992SOL    HW173983   6.661  11.051   2.271
23992SOL    HW273984   6.566  11.007   2.162
23993SOL     OW73985   5.945   0.988   6.239
23993SOL    HW173986   5.943   1.061   6.178
23993SOL    HW273987   5.991   1.021   6.316
23994SOL     OW73988   7.567   0.272   6.622
23994SOL    HW173989   7.587   0.330   6.695
23994SOL    HW273990   7.499   0.318   6.573
23995SOL     OW73991   1.821   4.595   1.230
23995SOL    HW173992   1.881   4.669   1.220
23995SOL    HW273993   1.756   4.625   1.293
23996SOL     OW73994   7.882   0.882   9.075
23996SOL    HW173995   7.925   0.858   8.993
23996SOL    HW273996   7.874   0.977   9.071
23997SOL     OW73997   4.377   0.192   5.899
23997SOL    HW173998   4.388   0.139   5.978
23997SOL    HW273999   4.458   0.177   5.849
23998SOL     OW74000   2.872  10.499   4.371
23998SOL    HW174001   2.787  10.529   4.340
23998SOL    HW274002   2.934  10.563   4.335
23999SOL     OW74003   3.974   1.621   8.059
23999SOL    HW174004   3.964   1.653   7.969
23999SOL    HW274005   3.926   1.684   8.113
24000SOL     OW74006   6.383   5.578   8.665
24000SOL    HW174007   6.450   5.525   8.622
24000SOL    HW274008   6.311   5.582   8.602
24001SOL     OW74009  10.892   2.016   8.205
24001SOL    HW174010  10.867   2.104   8.231
24001SOL    HW274011  10.834   1.959   8.255
24002SOL     OW74012   5.866   6.073  10.781
24002SOL    HW174013   5.789   6.128  10.792
24002SOL    HW274014   5.837   6.003  10.721
24003SOL     OW74015   9.207   1.798   8.642
24003SOL    HW174016   9.119   1.762   8.631
24003SOL    HW274017   9.197   1.868   8.706
24004SOL     OW74018   4.174   3.486   4.048
24004SOL    HW174019   4.142   3.401   4.080
24004SOL    HW274020   4.105   3.548   4.072
24005SOL     OW74021  11.009   5.062   7.950
24005SOL    HW174022  11.079   5.012   7.908
24005SOL    HW274023  11.054   5.117   8.014
24006SOL     OW74024   2.971   1.991   0.730
24006SOL    HW174025   3.032   1.978   0.657
24006SOL    HW274026   2.993   2.077   0.765
24007SOL     OW74027   0.414   6.116  10.900
24007SOL    HW174028   0.476   6.187  10.885
24007SOL    HW274029   0.442   6.047  10.840
24008SOL     OW74030   8.814   0.838   3.774
24008SOL    HW174031   8.871   0.910   3.747
24008SOL    HW274032   8.789   0.796   3.691
24009SOL     OW74033   8.408   4.618   8.306
24009SOL    HW174034   8.445   4.675   8.238
24009SOL    HW274035   8.317   4.604   8.279
24010SOL     OW74036   4.944   2.379   0.026
24010SOL    HW174037   4.860   2.343  -0.004
24010SOL    HW274038   4.929   2.404   0.117
24011SOL     OW74039   5.740   0.645   9.015
24011SOL    HW174040   5.783   0.697   9.083
24011SOL    HW274041   5.681   0.706   8.971
24012SOL     OW74042   9.231   0.731   8.687
24012SOL    HW174043   9.157   0.686   8.646
24012SOL    HW274044   9.308   0.692   8.644
24013SOL     OW74045   3.459   7.847   7.470
24013SOL    HW174046   3.462   7.752   7.486
24013SOL    HW274047   3.523   7.861   7.400
24014SOL     OW74048   7.617   5.589   9.888
24014SOL    HW174049   7.568   5.651   9.834
24014SOL    HW274050   7.696   5.637   9.914
24015SOL     OW74051   4.943   9.184   0.907
24015SOL    HW174052   4.963   9.224   0.991
24015SOL    HW274053   4.920   9.257   0.850
24016SOL     OW74054   1.994   1.667   6.985
24016SOL    HW174055   2.084   1.644   7.010
24016SOL    HW274056   1.939   1.608   7.036
24017SOL     OW74057   5.193   5.891   9.909
24017SOL    HW174058   5.258   5.858   9.971
24017SOL    HW274059   5.171   5.978   9.941
24018SOL     OW74060   8.404   5.400   5.282
24018SOL    HW174061   8.312   5.415   5.262
24018SOL    HW274062   8.449   5.412   5.198
24019SOL     OW74063   8.536   6.549   8.892
24019SOL    HW174064   8.445   6.521   8.904
24019SOL    HW274065   8.542   6.632   8.939
24020SOL     OW74066   5.177   3.681   0.376
24020SOL    HW174067   5.094   3.724   0.394
24020SOL    HW274068   5.192   3.625   0.452
24021SOL     OW74069   6.330  10.078  10.951
24021SOL    HW174070   6.382  10.129  10.889
24021SOL    HW274071   6.258  10.043  10.898
24022SOL     OW74072   3.055  10.582   3.999
24022SOL    HW174073   2.986  10.529   3.958
24022SOL    HW274074   3.128  10.521   4.010
24023SOL     OW74075   8.806   0.928   0.293
24023SOL    HW174076   8.809   0.834   0.312
24023SOL    HW274077   8.713   0.950   0.294
24024SOL     OW74078   3.889   1.951  10.937
24024SOL    HW174079   3.840   1.962  11.018
24024SOL    HW274080   3.957   1.887  10.958
24025SOL     OW74081   7.105   4.079  10.764
24025SOL    HW174082   7.170   4.146  10.785
24025SOL    HW274083   7.157   4.003  10.738
24026SOL     OW74084   3.686   3.433   4.971
24026SOL    HW174085   3.695   3.459   4.879
24026SOL    HW274086   3.631   3.355   4.968
24027SOL     OW74087   9.905   0.158   2.980
24027SOL    HW174088   9.945   0.231   2.933
24027SOL    HW274089   9.860   0.198   3.054
24028SOL     OW74090  11.075  10.521   0.559
24028SOL    HW174091  11.032  10.513   0.644
24028SOL    HW274092  11.004  10.514   0.495
24029SOL     OW74093   7.770   9.027   0.651
24029SOL    HW174094   7.683   9.062   0.670
24029SOL    HW274095   7.777   8.948   0.705
24030SOL     OW74096   7.030   2.783   1.016
24030SOL    HW174097   6.957   2.733   0.980
24030SOL    HW274098   7.078   2.814   0.939
24031SOL     OW74099   9.222   0.165   8.232
24031SOL    HW174100   9.128   0.160   8.216
24031SOL    HW274101   9.261   0.166   8.144
24032SOL     OW74102   8.075   3.381   0.955
24032SOL    HW174103   8.071   3.361   1.048
24032SOL    HW274104   8.161   3.350   0.927
24033SOL     OW74105   9.226   9.089   0.666
24033SOL    HW174106   9.224   8.999   0.698
24033SOL    HW274107   9.135   9.117   0.668
24034SOL     OW74108   2.512  10.899   0.312
24034SOL    HW174109   2.494  10.940   0.227
24034SOL    HW274110   2.578  10.956   0.352
24035SOL     OW74111   6.767   2.214   5.436
24035SOL    HW174112   6.734   2.154   5.503
24035SOL    HW274113   6.692   2.228   5.378
24036SOL     OW74114   0.162   6.929   2.604
24036SOL    HW174115   0.232   6.994   2.603
24036SOL    HW274116   0.122   6.936   2.517
24037SOL     OW74117   4.786   4.802   7.668
24037SOL    HW174118   4.800   4.888   7.630
24037SOL    HW274119   4.874   4.770   7.688
24038SOL     OW74120   1.002   7.260   9.234
24038SOL    HW174121   1.073   7.196   9.235
24038SOL    HW274122   1.007   7.303   9.319
24039SOL     OW74123   6.039  11.090   9.258
24039SOL    HW174124   6.130  11.098   9.286
24039SOL    HW274125   5.990  11.144   9.320
24040SOL     OW74126   3.086   6.375   2.595
24040SOL    HW174127   3.127   6.335   2.518
24040SOL    HW274128   3.022   6.436   2.559
24041SOL     OW74129   3.481   1.625   6.340
24041SOL    HW174130   3.403   1.571   6.328
24041SOL    HW274131   3.448   1.715   6.345
24042SOL     OW74132  11.083   0.497   0.742
24042SOL    HW174133  11.110   0.525   0.829
24042SOL    HW274134  10.989   0.511   0.739
24043SOL     OW74135   0.665  10.956   1.071
24043SOL    HW174136   0.626  10.878   1.111
24043SOL    HW274137   0.757  10.953   1.096
24044SOL     OW74138   2.392   9.500   4.836
24044SOL    HW174139   2.475   9.488   4.790
24044SOL    HW274140   2.330   9.524   4.767
24045SOL     OW74141   9.122   1.479  10.482
24045SOL    HW174142   9.173   1.524  10.415
24045SOL    HW274143   9.152   1.517  10.564
24046SOL     OW74144   4.390   3.209   9.746
24046SOL    HW174145   4.328   3.154   9.794
24046SOL    HW274146   4.428   3.267   9.812
24047SOL     OW74147   4.919   3.935   1.559
24047SOL    HW174148   4.922   4.009   1.498
24047SOL    HW274149   4.927   3.857   1.503
24048SOL     OW74150   7.345   3.049   3.407
24048SOL    HW174151   7.319   3.121   3.349
24048SOL    HW274152   7.293   2.974   3.377
24049SOL     OW74153   3.300   4.863   4.893
24049SOL    HW174154   3.285   4.945   4.940
24049SOL    HW274155   3.213   4.828   4.875
24050SOL     OW74156   7.427   0.318   5.927
24050SOL    HW174157   7.480   0.388   5.888
24050SOL    HW274158   7.467   0.301   6.012
24051SOL     OW74159   9.140   5.649   5.067
24051SOL    HW174160   9.078   5.622   5.135
24051SOL    HW274161   9.198   5.712   5.110
24052SOL     OW74162   9.022   2.451  10.010
24052SOL    HW174163   9.099   2.432   9.957
24052SOL    HW274164   9.053   2.445  10.100
24053SOL     OW74165  10.912   4.197   1.475
24053SOL    HW174166  10.980   4.138   1.442
24053SOL    HW274167  10.897   4.168   1.565
24054SOL     OW74168   0.906   1.107   9.030
24054SOL    HW174169   0.860   1.179   9.072
24054SOL    HW274170   0.906   1.130   8.937
24055SOL     OW74171   6.539   2.311   0.178
24055SOL    HW174172   6.529   2.228   0.131
24055SOL    HW274173   6.551   2.285   0.270
24056SOL     OW74174   6.133   4.929   9.170
24056SOL    HW174175   6.072   4.950   9.240
24056SOL    HW274176   6.216   4.967   9.197
24057SOL     OW74177   3.331   3.347   2.593
24057SOL    HW174178   3.410   3.338   2.646
24057SOL    HW274179   3.314   3.441   2.590
24058SOL     OW74180   6.933   4.961   8.471
24058SOL    HW174181   6.928   4.881   8.523
24058SOL    HW274182   6.979   4.934   8.391
24059SOL     OW74183   6.910   1.917   6.902
24059SOL    HW174184   6.849   1.989   6.916
24059SOL    HW274185   6.868   1.841   6.941
24060SOL     OW74186   8.340   2.464   6.259
24060SOL    HW174187   8.405   2.476   6.190
24060SOL    HW274188   8.390   2.471   6.340
24061SOL     OW74189   1.683   4.614   7.822
24061SOL    HW174190   1.678   4.599   7.727
24061SOL    HW274191   1.688   4.709   7.831
24062SOL     OW74192   3.579   4.422  10.845
24062SOL    HW174193   3.532   4.391  10.767
24062SOL    HW274194   3.669   4.434  10.815
24063SOL     OW74195   1.391   1.860   9.146
24063SOL    HW174196   1.426   1.815   9.223
24063SOL    HW274197   1.318   1.805   9.118
24064SOL     OW74198   8.266   3.854   0.756
24064SOL    HW174199   8.216   3.774   0.739
24064SOL    HW274200   8.356   3.831   0.734
24065SOL     OW74201   3.797   6.841   7.896
24065SOL    HW174202   3.858   6.841   7.822
24065SOL    HW274203   3.853   6.832   7.973
24066SOL     OW74204   6.724   0.335   9.503
24066SOL    HW174205   6.775   0.356   9.581
24066SOL    HW274206   6.787   0.293   9.444
24067SOL     OW74207   4.666   5.746   9.859
24067SOL    HW174208   4.752   5.787   9.846
24067SOL    HW274209   4.661   5.680   9.789
24068SOL     OW74210   8.461   2.099   7.385
24068SOL    HW174211   8.504   2.015   7.366
24068SOL    HW274212   8.380   2.096   7.334
24069SOL     OW74213   5.246   0.862  10.361
24069SOL    HW174214   5.339   0.839  10.365
24069SOL    HW274215   5.233   0.894  10.271
24070SOL     OW74216   6.577  10.907   5.680
24070SOL    HW174217   6.605  10.998   5.695
24070SOL    HW274218   6.482  10.912   5.669
24071SOL     OW74219   6.917   1.501   9.009
24071SOL    HW174220   6.823   1.500   9.024
24071SOL    HW274221   6.941   1.593   9.010
24072SOL     OW74222   6.264   6.597   3.275
24072SOL    HW174223   6.230   6.656   3.342
24072SOL    HW274224   6.355   6.581   3.301
24073SOL     OW74225   7.930   1.491   3.303
24073SOL    HW174226   7.937   1.464   3.211
24073SOL    HW274227   7.887   1.417   3.346
24074SOL     OW74228   8.911   0.592   6.109
24074SOL    HW174229   9.000   0.626   6.099
24074SOL    HW274230   8.868   0.613   6.026
24075SOL     OW74231   7.672   3.045   1.119
24075SOL    HW174232   7.759   3.009   1.101
24075SOL    HW274233   7.689   3.131   1.157
24076SOL     OW74234   1.059   0.376   3.854
24076SOL    HW174235   1.115   0.303   3.880
24076SOL    HW274236   1.002   0.340   3.786
24077SOL     OW74237   4.501   5.399   9.436
24077SOL    HW174238   4.410   5.407   9.407
24077SOL    HW274239   4.552   5.446   9.370
24078SOL     OW74240   1.732   7.202  10.074
24078SOL    HW174241   1.801   7.205  10.007
24078SOL    HW274242   1.653   7.182  10.024
24079SOL     OW74243   1.118  10.994   6.406
24079SOL    HW174244   1.069  11.028   6.331
24079SOL    HW274245   1.057  10.935   6.450
24080SOL     OW74246   1.839  10.313   5.988
24080SOL    HW174247   1.887  10.279   6.063
24080SOL    HW274248   1.864  10.405   5.982
24081SOL     OW74249   1.222   1.240   2.349
24081SOL    HW174250   1.266   1.179   2.408
24081SOL    HW274251   1.143   1.193   2.322
24082SOL     OW74252   6.120   1.953   5.818
24082SOL    HW174253   6.042   1.919   5.861
24082SOL    HW274254   6.136   2.037   5.860
24083SOL     OW74255   5.042   9.909   3.226
24083SOL    HW174256   5.006   9.986   3.269
24083SOL    HW274257   5.069   9.851   3.297
24084SOL     OW74258   6.961   3.668  11.097
24084SOL    HW174259   6.992   3.744  11.048
24084SOL    HW274260   7.002   3.593  11.052
24085SOL     OW74261   6.937   1.524   2.824
24085SOL    HW174262   6.897   1.601   2.783
24085SOL    HW274263   7.003   1.495   2.761
24086SOL     OW74264   4.976   5.829   1.032
24086SOL    HW174265   4.953   5.868   0.948
24086SOL    HW274266   4.940   5.740   1.027
24087SOL     OW74267   9.123   5.625   9.812
24087SOL    HW174268   9.216   5.644   9.820
24087SOL    HW274269   9.108   5.620   9.717
24088SOL     OW74270   9.640   5.764   6.108
24088SOL    HW174271   9.571   5.725   6.162
24088SOL    HW274272   9.597   5.836   6.062
24089SOL     OW74273   6.464   2.690   3.500
24089SOL    HW174274   6.456   2.675   3.405
24089SOL    HW274275   6.532   2.628   3.528
24090SOL     OW74276   9.550   5.957   0.658
24090SOL    HW174277   9.629   5.944   0.606
24090SOL    HW274278   9.489   5.891   0.625
24091SOL     OW74279   4.424   1.114   8.013
24091SOL    HW174280   4.517   1.098   8.028
24091SOL    HW274281   4.418   1.133   7.919
24092SOL     OW74282   8.508   8.399   2.574
24092SOL    HW174283   8.565   8.351   2.513
24092SOL    HW274284   8.520   8.491   2.551
24093SOL     OW74285   4.857   4.525   2.007
24093SOL    HW174286   4.909   4.586   2.059
24093SOL    HW274287   4.871   4.440   2.048
24094SOL     OW74288   3.800   5.105   0.745
24094SOL    HW174289   3.797   5.183   0.799
24094SOL    HW274290   3.839   5.134   0.662
24095SOL     OW74291   5.264   1.656   6.882
24095SOL    HW174292   5.242   1.687   6.794
24095SOL    HW274293   5.338   1.710   6.909
24096SOL     OW74294   4.256   1.452   8.367
24096SOL    HW174295   4.321   1.486   8.428
24096SOL    HW274296   4.305   1.391   8.312
24097SOL     OW74297   5.028   3.459   7.998
24097SOL    HW174298   5.107   3.435   8.047
24097SOL    HW274299   5.062   3.504   7.920
24098SOL     OW74300   5.260   8.143   8.086
24098SOL    HW174301   5.188   8.080   8.088
24098SOL    HW274302   5.299   8.138   8.173
24099SOL     OW74303   5.073   7.984   5.726
24099SOL    HW174304   5.042   7.948   5.809
24099SOL    HW274305   5.153   7.935   5.707
24100SOL     OW74306   4.295   4.662  10.119
24100SOL    HW174307   4.282   4.756  10.109
24100SOL    HW274308   4.385   4.653  10.150
24101SOL     OW74309   6.494   0.438  10.045
24101SOL    HW174310   6.542   0.493   9.983
24101SOL    HW274311   6.425   0.495  10.079
24102SOL     OW74312   8.998   3.865   0.185
24102SOL    HW174313   8.934   3.848   0.254
24102SOL    HW274314   9.069   3.803   0.202
24103SOL     OW74315   6.242   0.872   5.927
24103SOL    HW174316   6.245   0.855   5.833
24103SOL    HW274317   6.167   0.821   5.958
24104SOL     OW74318   6.691   0.976   9.890
24104SOL    HW174319   6.650   1.059   9.912
24104SOL    HW274320   6.653   0.952   9.805
24105SOL     OW74321   2.303   2.449   1.357
24105SOL    HW174322   2.301   2.443   1.452
24105SOL    HW274323   2.211   2.440   1.330
24106SOL     OW74324  10.135   7.921   1.023
24106SOL    HW174325  10.114   8.004   1.064
24106SOL    HW274326  10.230   7.912   1.033
24107SOL     OW74327   3.411   4.020  10.380
24107SOL    HW174328   3.473   4.066  10.323
24107SOL    HW274329   3.325   4.042  10.345
24108SOL     OW74330  10.328   7.594   4.759
24108SOL    HW174331  10.248   7.646   4.753
24108SOL    HW274332  10.393   7.644   4.709
24109SOL     OW74333   5.847  10.816   3.244
24109SOL    HW174334   5.791  10.788   3.316
24109SOL    HW274335   5.786  10.842   3.175
24110SOL     OW74336   3.540   2.147   4.549
24110SOL    HW174337   3.453   2.107   4.542
24110SOL    HW274338   3.601   2.073   4.553
24111SOL     OW74339   5.889   2.511   8.841
24111SOL    HW174340   5.932   2.534   8.923
24111SOL    HW274341   5.873   2.595   8.798
24112SOL     OW74342   7.136   3.203   3.507
24112SOL    HW174343   7.214   3.232   3.554
24112SOL    HW274344   7.138   3.107   3.513
24113SOL     OW74345   4.988   4.960  10.939
24113SOL    HW174346   4.969   5.009  10.859
24113SOL    HW274347   5.048   5.016  10.988
24114SOL     OW74348   4.735   2.273  10.738
24114SOL    HW174349   4.680   2.195  10.744
24114SOL    HW274350   4.738   2.307  10.827
24115SOL     OW74351   3.996   1.624   6.795
24115SOL    HW174352   4.086   1.649   6.774
24115SOL    HW274353   3.954   1.706   6.821
24116SOL     OW74354  10.410   0.248   1.289
24116SOL    HW174355  10.408   0.195   1.209
24116SOL    HW274356  10.420   0.338   1.258
24117SOL     OW74357   8.938   4.324   0.094
24117SOL    HW174358   8.975   4.389   0.154
24117SOL    HW274359   8.997   4.249   0.102
24118SOL     OW74360   6.968   5.717   8.526
24118SOL    HW174361   6.971   5.701   8.620
24118SOL    HW274362   7.030   5.654   8.489
24119SOL     OW74363   5.257   5.255   0.912
24119SOL    HW174364   5.191   5.186   0.901
24119SOL    HW274365   5.333   5.210   0.949
24120SOL     OW74366   4.140   3.567   6.411
24120SOL    HW174367   4.133   3.613   6.327
24120SOL    HW274368   4.065   3.507   6.412
24121SOL     OW74369   6.677   1.210   6.808
24121SOL    HW174370   6.625   1.206   6.727
24121SOL    HW274371   6.726   1.292   6.801
24122SOL     OW74372   3.664   9.527   6.039
24122SOL    HW174373   3.577   9.504   6.072
24122SOL    HW274374   3.659   9.508   5.945
24123SOL     OW74375   8.550   6.760   7.764
24123SOL    HW174376   8.550   6.722   7.852
24123SOL    HW274377   8.632   6.809   7.759
24124SOL     OW74378   5.903   9.498   5.650
24124SOL    HW174379   5.897   9.498   5.745
24124SOL    HW274380   5.964   9.569   5.630
24125SOL     OW74381  10.278   0.203   9.349
24125SOL    HW174382  10.217   0.238   9.413
24125SOL    HW274383  10.294   0.113   9.378
24126SOL     OW74384   9.488   6.458   1.975
24126SOL    HW174385   9.409   6.484   2.022
24126SOL    HW274386   9.524   6.385   2.026
24127SOL     OW74387   7.991   2.165   7.882
24127SOL    HW174388   8.043   2.170   7.802
24127SOL    HW274389   7.903   2.193   7.855
24128SOL     OW74390   4.955   4.930   4.784
24128SOL    HW174391   5.036   4.954   4.738
24128SOL    HW274392   4.890   4.993   4.753
24129SOL     OW74393   3.802   9.997   4.248
24129SOL    HW174394   3.713   9.989   4.214
24129SOL    HW274395   3.856  10.005   4.169
24130SOL     OW74396   8.275   6.906   8.973
24130SOL    HW174397   8.215   6.846   8.929
24130SOL    HW274398   8.233   6.926   9.056
24131SOL     OW74399  10.432   7.717  10.317
24131SOL    HW174400  10.487   7.763  10.380
24131SOL    HW274401  10.360   7.681  10.369
24132SOL     OW74402   1.776   8.668   1.398
24132SOL    HW174403   1.750   8.706   1.314
24132SOL    HW274404   1.755   8.575   1.389
24133SOL     OW74405   9.717   0.757   5.823
24133SOL    HW174406   9.682   0.668   5.832
24133SOL    HW274407   9.655   0.812   5.870
24134SOL     OW74408   9.011   7.472   5.850
24134SOL    HW174409   8.942   7.414   5.883
24134SOL    HW274410   9.025   7.443   5.759
24135SOL     OW74411   8.322   4.664   0.270
24135SOL    HW174412   8.411   4.652   0.235
24135SOL    HW274413   8.292   4.575   0.288
24136SOL     OW74414   7.603   4.359   8.218
24136SOL    HW174415   7.681   4.413   8.231
24136SOL    HW274416   7.559   4.358   8.303
24137SOL     OW74417  10.961  10.522   2.081
24137SOL    HW174418  10.976  10.612   2.111
24137SOL    HW274419  11.049  10.483   2.078
24138SOL     OW74420   0.817   7.142   7.183
24138SOL    HW174421   0.796   7.225   7.225
24138SOL    HW274422   0.753   7.080   7.217
24139SOL     OW74423   9.820   8.337   0.744
24139SOL    HW174424   9.845   8.370   0.830
24139SOL    HW274425   9.865   8.394   0.682
24140SOL     OW74426   8.468   2.019   9.818
24140SOL    HW174427   8.430   1.938   9.851
24140SOL    HW274428   8.493   1.998   9.728
24141SOL     OW74429  10.810   0.847   6.605
24141SOL    HW174430  10.749   0.777   6.627
24141SOL    HW274431  10.757   0.912   6.560
24142SOL     OW74432   0.639   6.048   6.797
24142SOL    HW174433   0.667   6.012   6.713
24142SOL    HW274434   0.627   5.971   6.853
24143SOL     OW74435   5.376   9.640   0.724
24143SOL    HW174436   5.350   9.609   0.810
24143SOL    HW274437   5.453   9.695   0.740
24144SOL     OW74438   3.410   5.253  10.652
24144SOL    HW174439   3.370   5.176  10.612
24144SOL    HW274440   3.401   5.322  10.586
24145SOL     OW74441   7.734   5.586   3.221
24145SOL    HW174442   7.647   5.547   3.216
24145SOL    HW274443   7.749   5.600   3.314
24146SOL     OW74444   4.107   3.029   0.608
24146SOL    HW174445   4.053   3.107   0.617
24146SOL    HW274446   4.077   2.971   0.678
24147SOL     OW74447   7.505   0.114  10.086
24147SOL    HW174448   7.457   0.031  10.082
24147SOL    HW274449   7.560   0.106  10.164
24148SOL     OW74450   5.035   6.806   1.649
24148SOL    HW174451   5.056   6.747   1.576
24148SOL    HW274452   5.032   6.749   1.726
24149SOL     OW74453   3.598   1.379   9.045
24149SOL    HW174454   3.571   1.438   9.115
24149SOL    HW274455   3.556   1.414   8.966
24150SOL     OW74456   3.127   2.933   9.308
24150SOL    HW174457   3.096   2.895   9.226
24150SOL    HW274458   3.221   2.915   9.308
24151SOL     OW74459   9.019   4.430  10.948
24151SOL    HW174460   9.043   4.428  11.040
24151SOL    HW274461   8.950   4.495  10.943
24152SOL     OW74462   3.043   6.745   9.894
24152SOL    HW174463   3.051   6.840   9.891
24152SOL    HW274464   3.133   6.713   9.888
24153SOL     OW74465   1.193   3.002   0.624
24153SOL    HW174466   1.139   3.009   0.545
24153SOL    HW274467   1.132   2.973   0.692
24154SOL     OW74468   8.618   1.319   8.542
24154SOL    HW174469   8.611   1.249   8.607
24154SOL    HW274470   8.675   1.283   8.474
24155SOL     OW74471   8.749   6.704   3.861
24155SOL    HW174472   8.834   6.719   3.903
24155SOL    HW274473   8.761   6.736   3.771
24156SOL     OW74474   2.092   5.933   4.933
24156SOL    HW174475   2.028   5.862   4.933
24156SOL    HW274476   2.155   5.907   4.865
24157SOL     OW74477   7.611   6.182  10.749
24157SOL    HW174478   7.674   6.252  10.734
24157SOL    HW274479   7.647   6.106  10.702
24158SOL     OW74480   2.995   2.582   5.803
24158SOL    HW174481   2.978   2.512   5.866
24158SOL    HW274482   2.909   2.603   5.767
24159SOL     OW74483   8.440   7.980   3.434
24159SOL    HW174484   8.525   7.973   3.478
24159SOL    HW274485   8.418   8.073   3.438
24160SOL     OW74486   3.599  10.584   1.475
24160SOL    HW174487   3.679  10.533   1.461
24160SOL    HW274488   3.565  10.553   1.559
24161SOL     OW74489   8.591   1.694   5.977
24161SOL    HW174490   8.499   1.674   5.958
24161SOL    HW274491   8.639   1.616   5.947
24162SOL     OW74492   9.913   3.590   7.877
24162SOL    HW174493   9.841   3.536   7.910
24162SOL    HW274494   9.886   3.680   7.894
24163SOL     OW74495  10.349   9.549   4.435
24163SOL    HW174496  10.368   9.469   4.385
24163SOL    HW274497  10.294   9.519   4.507
24164SOL     OW74498   0.552   8.375   7.815
24164SOL    HW174499   0.578   8.411   7.899
24164SOL    HW274500   0.634   8.363   7.768
24165SOL     OW74501   2.985   0.708   8.607
24165SOL    HW174502   2.927   0.641   8.644
24165SOL    HW274503   3.001   0.768   8.679
24166SOL     OW74504   6.563   6.415   8.895
24166SOL    HW174505   6.574   6.321   8.913
24166SOL    HW274506   6.598   6.426   8.806
24167SOL     OW74507   8.897   1.533   1.822
24167SOL    HW174508   8.843   1.599   1.779
24167SOL    HW274509   8.964   1.512   1.757
24168SOL     OW74510   6.619   9.325   3.826
24168SOL    HW174511   6.641   9.418   3.824
24168SOL    HW274512   6.665   9.291   3.902
24169SOL     OW74513   6.649   2.674   2.903
24169SOL    HW174514   6.710   2.710   2.838
24169SOL    HW274515   6.693   2.686   2.987
24170SOL     OW74516   4.007   2.868   5.977
24170SOL    HW174517   4.086   2.905   6.015
24170SOL    HW274518   3.971   2.812   6.045
24171SOL     OW74519   5.886   2.098   7.819
24171SOL    HW174520   5.813   2.124   7.875
24171SOL    HW274521   5.846   2.042   7.752
24172SOL     OW74522   7.915   7.384   0.439
24172SOL    HW174523   7.960   7.422   0.514
24172SOL    HW274524   7.986   7.356   0.381
24173SOL     OW74525   6.246   5.055   0.773
24173SOL    HW174526   6.306   5.029   0.842
24173SOL    HW274527   6.166   5.081   0.818
24174SOL     OW74528   3.693   1.932   7.488
24174SOL    HW174529   3.646   1.952   7.569
24174SOL    HW274530   3.729   2.016   7.460
24175SOL     OW74531   3.157   1.408   0.403
24175SOL    HW174532   3.218   1.343   0.437
24175SOL    HW274533   3.073   1.385   0.443
24176SOL     OW74534   8.980   9.253   7.895
24176SOL    HW174535   9.053   9.191   7.887
24176SOL    HW274536   9.015   9.335   7.862
24177SOL     OW74537   4.034   6.916  10.417
24177SOL    HW174538   3.946   6.941  10.445
24177SOL    HW274539   4.074   6.998  10.388
24178SOL     OW74540   5.647   4.877   9.661
24178SOL    HW174541   5.569   4.922   9.630
24178SOL    HW274542   5.626   4.850   9.750
24179SOL     OW74543   8.646   9.268   5.055
24179SOL    HW174544   8.698   9.244   4.978
24179SOL    HW274545   8.711   9.283   5.123
24180SOL     OW74546   5.743   3.870   4.660
24180SOL    HW174547   5.807   3.866   4.731
24180SOL    HW274548   5.742   3.781   4.624
24181SOL     OW74549   9.063   1.040  10.781
24181SOL    HW174550   9.070   1.086  10.697
24181SOL    HW274551   8.973   1.055  10.809
24182SOL     OW74552   3.531   1.598   9.183
24182SOL    HW174553   3.500   1.688   9.179
24182SOL    HW274554   3.481   1.557   9.254
24183SOL     OW74555   4.510   2.862   9.464
24183SOL    HW174556   4.543   2.918   9.533
24183SOL    HW274557   4.588   2.840   9.412
24184SOL     OW74558   3.355   2.370   2.676
24184SOL    HW174559   3.386   2.447   2.724
24184SOL    HW274560   3.435   2.324   2.650
24185SOL     OW74561   9.672   3.043   8.870
24185SOL    HW174562   9.618   3.004   8.801
24185SOL    HW274563   9.644   2.999   8.950
24186SOL     OW74564   1.764   5.489   0.081
24186SOL    HW174565   1.835   5.543   0.115
24186SOL    HW274566   1.687   5.516   0.131
24187SOL     OW74567   9.838   6.385   1.971
24187SOL    HW174568   9.766   6.417   2.024
24187SOL    HW274569   9.821   6.291   1.961
24188SOL     OW74570   2.247   1.625   7.072
24188SOL    HW174571   2.226   1.614   7.164
24188SOL    HW274572   2.336   1.661   7.071
24189SOL     OW74573   4.203   7.645   0.916
24189SOL    HW174574   4.292   7.610   0.907
24189SOL    HW274575   4.192   7.658   1.010
24190SOL     OW74576   4.917   5.766   6.885
24190SOL    HW174577   4.834   5.731   6.851
24190SOL    HW274578   4.955   5.813   6.810
24191SOL     OW74579   2.723   1.357   0.287
24191SOL    HW174580   2.648   1.410   0.260
24191SOL    HW274581   2.735   1.295   0.215
24192SOL     OW74582   4.402   9.316   8.213
24192SOL    HW174583   4.472   9.254   8.234
24192SOL    HW274584   4.445   9.401   8.215
24193SOL     OW74585   9.046   5.552  10.729
24193SOL    HW174586   9.118   5.492  10.749
24193SOL    HW274587   9.087   5.638  10.725
24194SOL     OW74588   9.162   3.385  10.279
24194SOL    HW174589   9.080   3.381  10.328
24194SOL    HW274590   9.146   3.451  10.211
24195SOL     OW74591   1.014   6.489   8.580
24195SOL    HW174592   1.108   6.507   8.573
24195SOL    HW274593   0.996   6.488   8.674
24196SOL     OW74594   4.044   2.579   7.437
24196SOL    HW174595   4.058   2.484   7.432
24196SOL    HW274596   4.073   2.603   7.525
24197SOL     OW74597  10.467  11.013   1.566
24197SOL    HW174598  10.529  11.067   1.615
24197SOL    HW274599  10.475  11.043   1.475
24198SOL     OW74600   3.702   1.336   7.839
24198SOL    HW174601   3.706   1.319   7.933
24198SOL    HW274602   3.663   1.423   7.831
24199SOL     OW74603   6.916   3.307   7.074
24199SOL    HW174604   6.888   3.374   7.135
24199SOL    HW274605   6.920   3.227   7.126
24200SOL     OW74606   2.577   9.557   0.674
24200SOL    HW174607   2.506   9.585   0.616
24200SOL    HW274608   2.594   9.466   0.649
24201SOL     OW74609   4.602   3.472   5.519
24201SOL    HW174610   4.605   3.377   5.505
24201SOL    HW274611   4.642   3.509   5.440
24202SOL     OW74612   9.003   1.573   8.085
24202SOL    HW174613   8.922   1.599   8.041
24202SOL    HW274614   9.036   1.653   8.125
24203SOL     OW74615   4.243  10.765   7.060
24203SOL    HW174616   4.278  10.739   7.145
24203SOL    HW274617   4.154  10.731   7.059
24204SOL     OW74618   1.090   4.066   4.426
24204SOL    HW174619   0.999   4.093   4.413
24204SOL    HW274620   1.105   3.999   4.359
24205SOL     OW74621   3.543   1.020   0.729
24205SOL    HW174622   3.476   0.958   0.699
24205SOL    HW274623   3.537   1.018   0.824
24206SOL     OW74624   6.611   7.510   9.642
24206SOL    HW174625   6.567   7.485   9.723
24206SOL    HW274626   6.696   7.465   9.646
24207SOL     OW74627   7.431   3.220  10.644
24207SOL    HW174628   7.456   3.135  10.608
24207SOL    HW274629   7.514   3.265  10.659
24208SOL     OW74630   4.754   3.563   2.064
24208SOL    HW174631   4.804   3.486   2.036
24208SOL    HW274632   4.796   3.590   2.145
24209SOL     OW74633  10.254   8.700   2.632
24209SOL    HW174634  10.269   8.611   2.666
24209SOL    HW274635  10.317   8.709   2.561
24210SOL     OW74636   5.202   4.243   0.450
24210SOL    HW174637   5.152   4.234   0.369
24210SOL    HW274638   5.166   4.176   0.508
24211SOL     OW74639   3.870   7.493  10.759
24211SOL    HW174640   3.870   7.560  10.827
24211SOL    HW274641   3.802   7.519  10.698
24212SOL     OW74642   1.989   4.191  10.194
24212SOL    HW174643   1.935   4.248  10.139
24212SOL    HW274644   2.009   4.244  10.271
24213SOL     OW74645   4.526   5.453   0.142
24213SOL    HW174646   4.445   5.428   0.099
24213SOL    HW274647   4.533   5.547   0.128
24214SOL     OW74648   7.650   1.470   3.161
24214SOL    HW174649   7.658   1.423   3.078
24214SOL    HW274650   7.660   1.562   3.137
24215SOL     OW74651   5.236   4.621   2.343
24215SOL    HW174652   5.277   4.545   2.300
24215SOL    HW274653   5.159   4.585   2.387
24216SOL     OW74654   7.098   4.989   4.230
24216SOL    HW174655   7.062   5.077   4.227
24216SOL    HW274656   7.049   4.944   4.299
24217SOL     OW74657   8.097   9.419   2.177
24217SOL    HW174658   8.180   9.430   2.223
24217SOL    HW274659   8.120   9.425   2.084
24218SOL     OW74660   6.556   5.928   3.908
24218SOL    HW174661   6.496   6.002   3.910
24218SOL    HW274662   6.629   5.957   3.852
24219SOL     OW74663   7.922   2.470   9.918
24219SOL    HW174664   7.880   2.440   9.837
24219SOL    HW274665   7.969   2.549   9.893
24220SOL     OW74666   6.049  10.699   1.002
24220SOL    HW174667   5.964  10.736   0.979
24220SOL    HW274668   6.078  10.751   1.077
24221SOL     OW74669   0.746   2.733   3.391
24221SOL    HW174670   0.699   2.669   3.337
24221SOL    HW274671   0.758   2.808   3.333
24222SOL     OW74672   5.033   7.459   5.091
24222SOL    HW174673   5.048   7.548   5.060
24222SOL    HW274674   4.942   7.440   5.068
24223SOL     OW74675   6.184   8.243   8.977
24223SOL    HW174676   6.151   8.266   8.890
24223SOL    HW274677   6.241   8.167   8.962
24224SOL     OW74678   6.245   7.321  10.920
24224SOL    HW174679   6.200   7.261  10.980
24224SOL    HW274680   6.338   7.298  10.928
24225SOL     OW74681   4.851   3.532   1.333
24225SOL    HW174682   4.838   3.527   1.427
24225SOL    HW274683   4.832   3.623   1.310
24226SOL     OW74684  10.889  10.261   3.024
24226SOL    HW174685  10.927  10.250   2.937
24226SOL    HW274686  10.901  10.176   3.066
24227SOL     OW74687   3.911   1.389  10.353
24227SOL    HW174688   3.896   1.343  10.436
24227SOL    HW274689   3.845   1.353  10.294
24228SOL     OW74690   8.830   7.715   4.515
24228SOL    HW174691   8.786   7.685   4.435
24228SOL    HW274692   8.776   7.681   4.586
24229SOL     OW74693  10.826   8.630   1.558
24229SOL    HW174694  10.916   8.627   1.526
24229SOL    HW274695  10.779   8.682   1.493
24230SOL     OW74696   6.047   2.028   8.028
24230SOL    HW174697   5.999   2.050   7.948
24230SOL    HW274698   5.983   1.983   8.083
24231SOL     OW74699   3.959   1.939   2.383
24231SOL    HW174700   3.991   1.912   2.469
24231SOL    HW274701   3.925   1.858   2.344
24232SOL     OW74702   1.163   6.602   6.717
24232SOL    HW174703   1.153   6.675   6.777
24232SOL    HW274704   1.096   6.539   6.744
24233SOL     OW74705  10.363   6.211   2.815
24233SOL    HW174706  10.345   6.117   2.823
24233SOL    HW274707  10.284   6.253   2.847
24234SOL     OW74708   8.307   2.152   0.353
24234SOL    HW174709   8.316   2.188   0.264
24234SOL    HW274710   8.247   2.078   0.342
24235SOL     OW74711   1.423   2.330   5.091
24235SOL    HW174712   1.492   2.289   5.143
24235SOL    HW274713   1.358   2.261   5.079
24236SOL     OW74714   7.841   9.252   1.595
24236SOL    HW174715   7.759   9.295   1.572
24236SOL    HW274716   7.898   9.322   1.625
24237SOL     OW74717   2.264   1.661   5.001
24237SOL    HW174718   2.328   1.633   5.067
24237SOL    HW274719   2.293   1.618   4.920
24238SOL     OW74720   2.079   8.957   0.165
24238SOL    HW174721   2.153   8.930   0.111
24238SOL    HW274722   2.114   8.962   0.254
24239SOL     OW74723   9.518   9.115   3.358
24239SOL    HW174724   9.454   9.130   3.288
24239SOL    HW274725   9.504   9.024   3.384
24240SOL     OW74726   5.882   2.247  10.215
24240SOL    HW174727   5.860   2.278  10.127
24240SOL    HW274728   5.826   2.170  10.228
24241SOL     OW74729   0.626   4.222  10.005
24241SOL    HW174730   0.560   4.290  10.017
24241SOL    HW274731   0.602   4.153  10.068
24242SOL     OW74732   1.889   0.460   6.621
24242SOL    HW174733   1.853   0.371   6.617
24242SOL    HW274734   1.840   0.509   6.555
24243SOL     OW74735   7.930   0.337   6.349
24243SOL    HW174736   7.869   0.406   6.372
24243SOL    HW274737   8.005   0.350   6.406
24244SOL     OW74738   7.391   0.560   8.826
24244SOL    HW174739   7.301   0.580   8.801
24244SOL    HW274740   7.395   0.579   8.919
24245SOL     OW74741   6.929   1.568  10.980
24245SOL    HW174742   6.999   1.550  11.042
24245SOL    HW274743   6.968   1.550  10.894
24246SOL     OW74744   2.532   3.659   0.156
24246SOL    HW174745   2.447   3.699   0.175
24246SOL    HW274746   2.576   3.722   0.099
24247SOL     OW74747   5.349   8.880   3.964
24247SOL    HW174748   5.254   8.890   3.971
24247SOL    HW274749   5.364   8.786   3.976
24248SOL     OW74750   7.416   0.781   1.600
24248SOL    HW174751   7.374   0.718   1.541
24248SOL    HW274752   7.477   0.728   1.652
24249SOL     OW74753   0.439   1.353   2.118
24249SOL    HW174754   0.390   1.433   2.102
24249SOL    HW274755   0.505   1.351   2.049
24250SOL     OW74756   6.474   3.348   3.781
24250SOL    HW174757   6.427   3.276   3.823
24250SOL    HW274758   6.565   3.337   3.809
24251SOL     OW74759   5.436   9.528   7.404
24251SOL    HW174760   5.413   9.439   7.431
24251SOL    HW274761   5.429   9.580   7.483
24252SOL     OW74762   8.175   6.855   9.959
24252SOL    HW174763   8.133   6.859   9.873
24252SOL    HW274764   8.268   6.845   9.940
24253SOL     OW74765   1.246   2.107  10.781
24253SOL    HW174766   1.248   2.042  10.851
24253SOL    HW274767   1.336   2.141  10.777
24254SOL     OW74768   6.472   7.436   9.880
24254SOL    HW174769   6.493   7.492   9.955
24254SOL    HW274770   6.382   7.407   9.896
24255SOL     OW74771   4.534   4.025   2.099
24255SOL    HW174772   4.581   3.975   2.032
24255SOL    HW274773   4.515   3.960   2.167
24256SOL     OW74774   5.197   0.311   9.487
24256SOL    HW174775   5.277   0.259   9.496
24256SOL    HW274776   5.127   0.246   9.482
24257SOL     OW74777  10.413   8.612   1.012
24257SOL    HW174778  10.344   8.641   0.952
24257SOL    HW274779  10.493   8.615   0.959
24258SOL     OW74780   4.931  10.799   9.220
24258SOL    HW174781   5.017  10.836   9.198
24258SOL    HW274782   4.944  10.757   9.305
24259SOL     OW74783   1.905   0.790   5.147
24259SOL    HW174784   1.828   0.758   5.100
24259SOL    HW274785   1.979   0.760   5.094
24260SOL     OW74786   5.274   1.088   8.964
24260SOL    HW174787   5.368   1.108   8.963
24260SOL    HW274788   5.261   1.037   9.044
24261SOL     OW74789   0.372   1.027   2.842
24261SOL    HW174790   0.308   1.098   2.841
24261SOL    HW274791   0.376   0.998   2.933
24262SOL     OW74792   7.341   6.379   8.573
24262SOL    HW174793   7.328   6.470   8.546
24262SOL    HW274794   7.346   6.383   8.668
24263SOL     OW74795   2.350   0.749   4.715
24263SOL    HW174796   2.408   0.808   4.667
24263SOL    HW274797   2.280   0.805   4.748
24264SOL     OW74798   2.511  10.093   3.781
24264SOL    HW174799   2.573  10.164   3.766
24264SOL    HW274800   2.548  10.018   3.733
24265SOL     OW74801   9.357   7.946   0.197
24265SOL    HW174802   9.357   8.025   0.251
24265SOL    HW274803   9.389   7.975   0.112
24266SOL     OW74804   7.545   5.884   6.967
24266SOL    HW174805   7.529   5.916   7.055
24266SOL    HW274806   7.610   5.815   6.978
24267SOL     OW74807   5.676   2.447   7.075
24267SOL    HW174808   5.581   2.450   7.080
24267SOL    HW274809   5.705   2.535   7.098
24268SOL     OW74810   1.915   8.260  10.669
24268SOL    HW174811   1.834   8.282  10.715
24268SOL    HW274812   1.886   8.226  10.584
24269SOL     OW74813   2.527   9.059  10.143
24269SOL    HW174814   2.555   9.148  10.164
24269SOL    HW274815   2.537   9.010  10.225
24270SOL     OW74816   9.057   2.909   5.352
24270SOL    HW174817   9.030   2.819   5.330
24270SOL    HW274818   9.106   2.900   5.433
24271SOL     OW74819   2.852   2.314   0.027
24271SOL    HW174820   2.808   2.397   0.044
24271SOL    HW274821   2.914   2.333  -0.043
24272SOL     OW74822   3.394   6.566  10.033
24272SOL    HW174823   3.487   6.587  10.022
24272SOL    HW274824   3.374   6.592  10.122
24273SOL     OW74825   3.728   3.886   9.223
24273SOL    HW174826   3.716   3.815   9.286
24273SOL    HW274827   3.823   3.899   9.219
24274SOL     OW74828   4.723   7.390   2.526
24274SOL    HW174829   4.760   7.468   2.567
24274SOL    HW274830   4.792   7.359   2.467
24275SOL     OW74831   5.332   5.582   0.168
24275SOL    HW174832   5.410   5.559   0.119
24275SOL    HW274833   5.354   5.562   0.259
24276SOL     OW74834   9.000   9.755   8.450
24276SOL    HW174835   9.095   9.765   8.459
24276SOL    HW274836   8.972   9.715   8.532
24277SOL     OW74837   5.323   0.168   7.108
24277SOL    HW174838   5.339   0.220   7.187
24277SOL    HW274839   5.231   0.143   7.114
24278SOL     OW74840   4.958   6.380  10.317
24278SOL    HW174841   5.053   6.370  10.319
24278SOL    HW274842   4.939   6.445  10.384
24279SOL     OW74843   4.199   5.658   7.986
24279SOL    HW174844   4.289   5.645   7.955
24279SOL    HW274845   4.189   5.596   8.058
24280SOL     OW74846   2.827   0.709   2.219
24280SOL    HW174847   2.756   0.750   2.170
24280SOL    HW274848   2.907   0.742   2.178
24281SOL     OW74849   6.757   2.987   9.339
24281SOL    HW174850   6.814   2.972   9.263
24281SOL    HW274851   6.731   2.899   9.366
24282SOL     OW74852   5.275   3.221   3.195
24282SOL    HW174853   5.205   3.253   3.138
24282SOL    HW274854   5.348   3.282   3.181
24283SOL     OW74855   7.676   1.061   2.498
24283SOL    HW174856   7.593   1.014   2.501
24283SOL    HW274857   7.701   1.059   2.405
24284SOL     OW74858   1.077   7.325   4.791
24284SOL    HW174859   0.995   7.362   4.759
24284SOL    HW274860   1.064   7.230   4.788
24285SOL     OW74861   3.100   0.347   7.243
24285SOL    HW174862   3.158   0.291   7.190
24285SOL    HW274863   3.013   0.331   7.206
24286SOL     OW74864   8.507   2.271   1.034
24286SOL    HW174865   8.477   2.263   1.124
24286SOL    HW274866   8.593   2.229   1.033
24287SOL     OW74867   6.388   9.366   0.627
24287SOL    HW174868   6.459   9.308   0.655
24287SOL    HW274869   6.351   9.323   0.550
24288SOL     OW74870   4.919   5.991   0.831
24288SOL    HW174871   4.954   6.021   0.747
24288SOL    HW274872   4.965   6.043   0.896
24289SOL     OW74873   7.713   0.132  10.285
24289SOL    HW174874   7.705   0.199  10.352
24289SOL    HW274875   7.797   0.149  10.243
24290SOL     OW74876   8.158   1.938   2.353
24290SOL    HW174877   8.235   1.964   2.303
24290SOL    HW274878   8.171   1.977   2.439
24291SOL     OW74879   2.079   2.813  10.193
24291SOL    HW174880   2.109   2.792  10.104
24291SOL    HW274881   2.110   2.740  10.246
24292SOL     OW74882   7.243  10.659   1.617
24292SOL    HW174883   7.332  10.674   1.650
24292SOL    HW274884   7.216  10.744   1.582
24293SOL     OW74885   6.070   4.069   0.526
24293SOL    HW174886   6.002   4.051   0.461
24293SOL    HW274887   6.139   4.113   0.476
24294SOL     OW74888  10.579   1.384   6.259
24294SOL    HW174889  10.492   1.404   6.225
24294SOL    HW274890  10.570   1.297   6.299
24295SOL     OW74891   5.509   5.874   7.793
24295SOL    HW174892   5.503   5.966   7.769
24295SOL    HW274893   5.479   5.870   7.884
24296SOL     OW74894   2.175   1.382   3.808
24296SOL    HW174895   2.145   1.333   3.731
24296SOL    HW274896   2.143   1.331   3.882
24297SOL     OW74897   4.688   2.184   1.274
24297SOL    HW174898   4.662   2.269   1.308
24297SOL    HW274899   4.751   2.204   1.205
24298SOL     OW74900   6.548   3.307   4.543
24298SOL    HW174901   6.464   3.314   4.497
24298SOL    HW274902   6.613   3.333   4.478
24299SOL     OW74903  10.693   8.615   3.116
24299SOL    HW174904  10.642   8.552   3.064
24299SOL    HW274905  10.629   8.679   3.146
24300SOL     OW74906   6.148  10.800   4.120
24300SOL    HW174907   6.101  10.716   4.120
24300SOL    HW274908   6.110  10.848   4.046
24301SOL     OW74909   3.126   7.910   8.047
24301SOL    HW174910   3.034   7.925   8.066
24301SOL    HW274911   3.162   7.875   8.128
24302SOL     OW74912   6.128   9.145   6.956
24302SOL    HW174913   6.116   9.089   7.032
24302SOL    HW274914   6.154   9.230   6.992
24303SOL     OW74915   3.552   1.416  10.286
24303SOL    HW174916   3.563   1.486  10.350
24303SOL    HW274917   3.533   1.338  10.338
24304SOL     OW74918   4.986   8.274   1.200
24304SOL    HW174919   4.914   8.320   1.242
24304SOL    HW274920   4.980   8.184   1.233
24305SOL     OW74921   3.800   3.766   7.020
24305SOL    HW174922   3.809   3.707   6.944
24305SOL    HW274923   3.878   3.749   7.073
24306SOL     OW74924   0.794  10.316   0.926
24306SOL    HW174925   0.796  10.221   0.943
24306SOL    HW274926   0.811  10.323   0.832
24307SOL     OW74927   4.389   1.628   3.877
24307SOL    HW174928   4.322   1.590   3.934
24307SOL    HW274929   4.340   1.682   3.815
24308SOL     OW74930   6.494   6.226   6.361
24308SOL    HW174931   6.586   6.237   6.384
24308SOL    HW274932   6.481   6.131   6.360
24309SOL     OW74933   7.031   8.497   6.980
24309SOL    HW174934   7.034   8.576   7.034
24309SOL    HW274935   6.941   8.465   6.990
24310SOL     OW74936   3.974  10.275   3.989
24310SOL    HW174937   4.015  10.361   3.999
24310SOL    HW274938   4.045  10.218   3.958
24311SOL     OW74939   4.644   6.609   9.849
24311SOL    HW174940   4.594   6.678   9.892
24311SOL    HW274941   4.672   6.551   9.920
24312SOL     OW74942   8.205   3.924   1.023
24312SOL    HW174943   8.295   3.950   1.040
24312SOL    HW274944   8.201   3.915   0.928
24313SOL     OW74945  10.884   9.202   9.962
24313SOL    HW174946  10.907   9.294   9.976
24313SOL    HW274947  10.796   9.204   9.925
24314SOL     OW74948   5.437   7.600   0.658
24314SOL    HW174949   5.426   7.693   0.641
24314SOL    HW274950   5.452   7.562   0.571
24315SOL     OW74951   3.326   6.279   7.491
24315SOL    HW174952   3.359   6.323   7.569
24315SOL    HW274953   3.324   6.186   7.514
24316SOL     OW74954   3.426   2.091   2.345
24316SOL    HW174955   3.473   2.155   2.399
24316SOL    HW274956   3.495   2.039   2.304
24317SOL     OW74957   5.428   4.238   3.570
24317SOL    HW174958   5.432   4.251   3.664
24317SOL    HW274959   5.349   4.284   3.542
24318SOL     OW74960   7.299   5.011   0.728
24318SOL    HW174961   7.356   4.973   0.661
24318SOL    HW274962   7.245   4.938   0.758
24319SOL     OW74963  -0.001   2.983   2.377
24319SOL    HW174964   0.067   2.916   2.364
24319SOL    HW274965   0.042   3.066   2.357
24320SOL     OW74966   4.703   9.826   0.979
24320SOL    HW174967   4.779   9.809   1.035
24320SOL    HW274968   4.695   9.747   0.925
24321SOL     OW74969   8.703   6.318   0.031
24321SOL    HW174970   8.652   6.367   0.096
24321SOL    HW274971   8.699   6.371  -0.048
24322SOL     OW74972   2.490   1.443   0.185
24322SOL    HW174973   2.456   1.354   0.192
24322SOL    HW274974   2.458   1.475   0.101
24323SOL     OW74975   5.955   4.573   8.465
24323SOL    HW174976   5.941   4.653   8.414
24323SOL    HW274977   6.019   4.597   8.532
24324SOL     OW74978   8.432   8.641   2.286
24324SOL    HW174979   8.484   8.649   2.366
24324SOL    HW274980   8.489   8.675   2.217
24325SOL     OW74981   3.139  10.805   7.373
24325SOL    HW174982   3.071  10.816   7.439
24325SOL    HW274983   3.092  10.782   7.293
24326SOL     OW74984  10.016   2.563   9.413
24326SOL    HW174985   9.958   2.637   9.427
24326SOL    HW274986  10.074   2.590   9.342
24327SOL     OW74987   6.194   6.742   3.494
24327SOL    HW174988   6.169   6.703   3.577
24327SOL    HW274989   6.228   6.828   3.517
24328SOL     OW74990   7.334   9.128   9.130
24328SOL    HW174991   7.369   9.213   9.105
24328SOL    HW274992   7.290   9.143   9.213
24329SOL     OW74993   8.803   5.542   6.048
24329SOL    HW174994   8.864   5.566   5.978
24329SOL    HW274995   8.814   5.447   6.057
24330SOL     OW74996   2.739   8.204  10.413
24330SOL    HW174997   2.668   8.145  10.387
24330SOL    HW274998   2.814   8.146  10.428
24331SOL     OW74999   3.234   4.256   6.720
24331SOL    HW175000   3.249   4.193   6.649
24331SOL    HW275001   3.246   4.341   6.678
24332SOL     OW75002   6.909   5.929   9.874
24332SOL    HW175003   6.927   5.936   9.780
24332SOL    HW275004   6.855   5.850   9.882
24333SOL     OW75005   2.930  10.259   9.172
24333SOL    HW175006   3.005  10.200   9.181
24333SOL    HW275007   2.967  10.346   9.186
24334SOL     OW75008   8.920   4.986   3.043
24334SOL    HW175009   8.853   4.992   2.975
24334SOL    HW275010   8.985   4.925   3.007
24335SOL     OW75011   0.992   3.294   3.738
24335SOL    HW175012   0.971   3.208   3.776
24335SOL    HW275013   0.988   3.280   3.643
24336SOL     OW75014   4.473   8.671   3.547
24336SOL    HW175015   4.379   8.661   3.564
24336SOL    HW275016   4.510   8.697   3.631
24337SOL     OW75017   5.040  10.940  10.745
24337SOL    HW175018   5.053  10.875  10.814
24337SOL    HW275019   5.036  11.024  10.791
24338SOL     OW75020   5.320   6.188  10.115
24338SOL    HW175021   5.274   6.198  10.031
24338SOL    HW275022   5.391   6.126  10.095
24339SOL     OW75023   5.057   9.962   8.773
24339SOL    HW175024   5.124  10.029   8.786
24339SOL    HW275025   4.975  10.005   8.796
24340SOL     OW75026   2.484   2.367   2.020
24340SOL    HW175027   2.440   2.376   1.935
24340SOL    HW275028   2.415   2.340   2.080
24341SOL     OW75029   2.752   5.179   7.237
24341SOL    HW175030   2.671   5.139   7.205
24341SOL    HW275031   2.741   5.272   7.221
24342SOL     OW75032   3.630   7.010   2.587
24342SOL    HW175033   3.553   7.034   2.536
24342SOL    HW275034   3.621   6.915   2.601
24343SOL     OW75035   5.423  10.913   7.235
24343SOL    HW175036   5.485  10.854   7.277
24343SOL    HW275037   5.465  10.999   7.240
24344SOL     OW75038   5.112   2.780   3.527
24344SOL    HW175039   5.031   2.728   3.524
24344SOL    HW275040   5.089   2.864   3.487
24345SOL     OW75041   2.596   5.041   0.379
24345SOL    HW175042   2.679   5.089   0.379
24345SOL    HW275043   2.588   5.007   0.468
24346SOL     OW75044   8.148   8.257   3.111
24346SOL    HW175045   8.112   8.345   3.100
24346SOL    HW275046   8.163   8.226   3.021
24347SOL     OW75047   1.396   6.448   0.781
24347SOL    HW175048   1.322   6.388   0.789
24347SOL    HW275049   1.467   6.393   0.747
24348SOL     OW75050   0.376   8.415   2.850
24348SOL    HW175051   0.427   8.465   2.914
24348SOL    HW275052   0.299   8.469   2.833
24349SOL     OW75053   8.281   9.158   7.353
24349SOL    HW175054   8.205   9.181   7.406
24349SOL    HW275055   8.280   9.221   7.281
24350SOL     OW75056   7.452   8.610   3.452
24350SOL    HW175057   7.459   8.596   3.357
24350SOL    HW275058   7.520   8.554   3.489
24351SOL     OW75059   5.140   7.784   4.987
24351SOL    HW175060   5.214   7.742   4.943
24351SOL    HW275061   5.156   7.769   5.080
24352SOL     OW75062   4.150   5.257   3.628
24352SOL    HW175063   4.108   5.278   3.544
24352SOL    HW275064   4.198   5.336   3.651
24353SOL     OW75065   5.063   3.930   8.023
24353SOL    HW175066   4.986   3.982   8.002
24353SOL    HW275067   5.099   3.905   7.938
24354SOL     OW75068   2.689   5.508   6.534
24354SOL    HW175069   2.757   5.463   6.483
24354SOL    HW275070   2.727   5.593   6.554
24355SOL     OW75071   4.467   1.699   2.027
24355SOL    HW175072   4.432   1.748   2.101
24355SOL    HW275073   4.425   1.613   2.033
24356SOL     OW75074   3.679   9.597   4.789
24356SOL    HW175075   3.633   9.650   4.854
24356SOL    HW275076   3.747   9.552   4.839
24357SOL     OW75077   6.614   6.859   0.546
24357SOL    HW175078   6.574   6.835   0.629
24357SOL    HW275079   6.648   6.947   0.559
24358SOL     OW75080   2.497   4.070   3.975
24358SOL    HW175081   2.530   4.158   3.961
24358SOL    HW275082   2.555   4.014   3.923
24359SOL     OW75083   2.730   6.088   9.829
24359SOL    HW175084   2.793   6.059   9.895
24359SOL    HW275085   2.741   6.026   9.756
24360SOL     OW75086   7.658   9.238   9.463
24360SOL    HW175087   7.642   9.167   9.400
24360SOL    HW275088   7.571   9.268   9.488
24361SOL     OW75089   3.806   2.424   3.178
24361SOL    HW175090   3.783   2.396   3.089
24361SOL    HW275091   3.741   2.382   3.234
24362SOL     OW75092   6.482   8.917   2.272
24362SOL    HW175093   6.547   8.971   2.228
24362SOL    HW275094   6.439   8.869   2.201
24363SOL     OW75095   8.280   4.128   1.470
24363SOL    HW175096   8.270   4.082   1.553
24363SOL    HW275097   8.198   4.176   1.458
24364SOL     OW75098   3.687   8.239   7.057
24364SOL    HW175099   3.652   8.188   7.130
24364SOL    HW275100   3.610   8.273   7.012
24365SOL     OW75101   3.978   6.005  10.245
24365SOL    HW175102   3.994   6.079  10.186
24365SOL    HW275103   4.063   5.962  10.252
24366SOL     OW75104   7.829  10.783   8.472
24366SOL    HW175105   7.810  10.714   8.408
24366SOL    HW275106   7.768  10.766   8.544
24367SOL     OW75107   6.270   4.782   5.187
24367SOL    HW175108   6.338   4.716   5.202
24367SOL    HW275109   6.196   4.752   5.240
24368SOL     OW75110   9.710   8.971   9.281
24368SOL    HW175111   9.704   9.056   9.323
24368SOL    HW275112   9.706   8.908   9.353
24369SOL     OW75113   4.962   4.817   0.236
24369SOL    HW175114   5.030   4.884   0.242
24369SOL    HW275115   5.002   4.739   0.275
24370SOL     OW75116   6.058  10.707   3.145
24370SOL    HW175117   6.127  10.721   3.210
24370SOL    HW275118   5.978  10.741   3.186
24371SOL     OW75119   4.603   5.884   5.426
24371SOL    HW175120   4.525   5.832   5.444
24371SOL    HW275121   4.592   5.963   5.478
24372SOL     OW75122   7.459   2.469   5.508
24372SOL    HW175123   7.510   2.420   5.443
24372SOL    HW275124   7.368   2.445   5.490
24373SOL     OW75125   7.079   1.412   7.379
24373SOL    HW175126   7.115   1.382   7.295
24373SOL    HW275127   7.080   1.507   7.372
24374SOL     OW75128   5.663   2.898   4.512
24374SOL    HW175129   5.601   2.848   4.565
24374SOL    HW275130   5.615   2.917   4.431
24375SOL     OW75131   7.086   1.894   5.012
24375SOL    HW175132   7.016   1.897   4.947
24375SOL    HW275133   7.041   1.898   5.096
24376SOL     OW75134   9.634   4.380   9.738
24376SOL    HW175135   9.573   4.309   9.718
24376SOL    HW275136   9.635   4.385   9.833
24377SOL     OW75137   1.595  10.840   9.165
24377SOL    HW175138   1.581  10.932   9.140
24377SOL    HW275139   1.603  10.794   9.081
24378SOL     OW75140   5.076   2.208   0.597
24378SOL    HW175141   5.138   2.144   0.633
24378SOL    HW275142   5.003   2.154   0.565
24379SOL     OW75143   3.170   4.093   3.466
24379SOL    HW175144   3.246   4.132   3.509
24379SOL    HW275145   3.207   4.032   3.402
24380SOL     OW75146   6.323   3.977  10.342
24380SOL    HW175147   6.405   4.026  10.343
24380SOL    HW275148   6.339   3.902  10.399
24381SOL     OW75149   2.305   8.532   6.506
24381SOL    HW175150   2.313   8.516   6.412
24381SOL    HW275151   2.282   8.446   6.542
24382SOL     OW75152   8.750   7.270   4.021
24382SOL    HW175153   8.763   7.192   3.967
24382SOL    HW275154   8.669   7.309   3.987
24383SOL     OW75155   2.341   4.744   8.122
24383SOL    HW175156   2.321   4.830   8.086
24383SOL    HW275157   2.378   4.695   8.048
24384SOL     OW75158  10.592   5.522   8.295
24384SOL    HW175159  10.539   5.583   8.244
24384SOL    HW275160  10.569   5.436   8.260
24385SOL     OW75161   1.037  10.785   0.856
24385SOL    HW175162   1.111  10.747   0.902
24385SOL    HW275163   1.034  10.738   0.773
24386SOL     OW75164  10.061  10.807   0.009
24386SOL    HW175165  10.120  10.731   0.006
24386SOL    HW275166   9.973  10.770   0.002
24387SOL     OW75167  10.115   6.230  11.051
24387SOL    HW175168  10.115   6.314  11.096
24387SOL    HW275169  10.112   6.252  10.958
24388SOL     OW75170   4.451   0.641   2.726
24388SOL    HW175171   4.545   0.659   2.716
24388SOL    HW275172   4.445   0.545   2.725
24389SOL     OW75173   0.795   5.057  10.663
24389SOL    HW175174   0.799   5.055  10.758
24389SOL    HW275175   0.783   4.965  10.638
24390SOL     OW75176   1.216   2.893  11.092
24390SOL    HW175177   1.289   2.914  11.034
24390SOL    HW275178   1.191   2.804  11.067
24391SOL     OW75179   4.572   9.144  10.412
24391SOL    HW175180   4.566   9.177  10.322
24391SOL    HW275181   4.486   9.160  10.450
24392SOL     OW75182   1.901  10.995   7.913
24392SOL    HW175183   1.828  10.939   7.939
24392SOL    HW275184   1.862  11.060   7.854
24393SOL     OW75185   5.273   7.667  10.457
24393SOL    HW175186   5.223   7.716  10.522
24393SOL    HW275187   5.287   7.728  10.385
24394SOL     OW75188   8.776   2.233   1.328
24394SOL    HW175189   8.853   2.279   1.361
24394SOL    HW275190   8.745   2.182   1.402
24395SOL     OW75191   7.223   3.623   6.506
24395SOL    HW175192   7.221   3.718   6.519
24395SOL    HW275193   7.308   3.596   6.541
24396SOL     OW75194   0.165   9.512   5.856
24396SOL    HW175195   0.093   9.472   5.905
24396SOL    HW275196   0.175   9.599   5.894
24397SOL     OW75197   4.324   9.101   2.064
24397SOL    HW175198   4.335   9.170   1.999
24397SOL    HW275199   4.329   9.020   2.013
24398SOL     OW75200   4.280   1.583   0.730
24398SOL    HW175201   4.368   1.612   0.706
24398SOL    HW275202   4.224   1.657   0.708
24399SOL     OW75203   6.805   7.259  11.095
24399SOL    HW175204   6.801   7.184  11.154
24399SOL    HW275205   6.787   7.221  11.008
24400SOL     OW75206  10.120   7.170   1.868
24400SOL    HW175207  10.072   7.173   1.785
24400SOL    HW275208  10.101   7.083   1.903
24401SOL     OW75209   7.870   6.266   8.310
24401SOL    HW175210   7.843   6.174   8.306
24401SOL    HW275211   7.797   6.310   8.351
24402SOL     OW75212  10.910   1.497   0.521
24402SOL    HW175213  10.983   1.541   0.565
24402SOL    HW275214  10.847   1.478   0.591
24403SOL     OW75215  10.702  10.362   8.358
24403SOL    HW175216  10.620  10.316   8.374
24403SOL    HW275217  10.729  10.332   8.271
24404SOL     OW75218   0.501   5.335   1.363
24404SOL    HW175219   0.440   5.315   1.433
24404SOL    HW275220   0.465   5.289   1.287
24405SOL     OW75221   9.488  10.104   2.513
24405SOL    HW175222   9.532  10.128   2.594
24405SOL    HW275223   9.445  10.021   2.533
24406SOL     OW75224   8.103   1.799   2.657
24406SOL    HW175225   8.055   1.742   2.718
24406SOL    HW275226   8.083   1.763   2.570
24407SOL     OW75227   0.928   5.196   5.286
24407SOL    HW175228   0.890   5.276   5.322
24407SOL    HW275229   1.019   5.196   5.316
24408SOL     OW75230   1.105   7.173   1.324
24408SOL    HW175231   1.128   7.104   1.261
24408SOL    HW275232   1.025   7.141   1.365
24409SOL     OW75233  11.047   1.153  10.947
24409SOL    HW175234  11.109   1.092  10.988
24409SOL    HW275235  10.979   1.096  10.910
24410SOL     OW75236   8.798   2.667   1.398
24410SOL    HW175237   8.764   2.756   1.408
24410SOL    HW275238   8.735   2.623   1.340
24411SOL     OW75239   2.271   6.247  10.796
24411SOL    HW175240   2.260   6.316  10.730
24411SOL    HW275241   2.263   6.165  10.746
24412SOL     OW75242   3.819   7.366   4.130
24412SOL    HW175243   3.877   7.297   4.163
24412SOL    HW275244   3.856   7.447   4.165
24413SOL     OW75245   3.034   1.269   1.726
24413SOL    HW175246   2.990   1.253   1.642
24413SOL    HW275247   3.006   1.356   1.752
24414SOL     OW75248   7.871   8.329   9.831
24414SOL    HW175249   7.861   8.343   9.925
24414SOL    HW275250   7.966   8.329   9.817
24415SOL     OW75251  10.012   7.835   4.268
24415SOL    HW175252   9.928   7.839   4.222
24415SOL    HW275253  10.072   7.887   4.214
24416SOL     OW75254   5.434   3.502   3.006
24416SOL    HW175255   5.487   3.578   3.028
24416SOL    HW275256   5.362   3.537   2.953
24417SOL     OW75257   1.922   5.451   1.634
24417SOL    HW175258   1.999   5.505   1.617
24417SOL    HW275259   1.935   5.373   1.580
24418SOL     OW75260   1.357   7.886   0.041
24418SOL    HW175261   1.412   7.858  -0.032
24418SOL    HW275262   1.416   7.934   0.099
24419SOL     OW75263   6.792   2.777   2.697
24419SOL    HW175264   6.781   2.705   2.634
24419SOL    HW275265   6.807   2.854   2.642
24420SOL     OW75266   8.879   6.007   0.308
24420SOL    HW175267   8.927   6.080   0.269
24420SOL    HW275268   8.877   6.026   0.401
24421SOL     OW75269   1.694   1.814   9.620
24421SOL    HW175270   1.671   1.801   9.712
24421SOL    HW275271   1.697   1.725   9.584
24422SOL     OW75272   1.414   3.204   8.792
24422SOL    HW175273   1.407   3.148   8.869
24422SOL    HW275274   1.393   3.292   8.823
24423SOL     OW75275   5.265   1.578  10.038
24423SOL    HW175276   5.314   1.647  10.083
24423SOL    HW275277   5.321   1.554   9.963
24424SOL     OW75278   1.864   0.733   7.647
24424SOL    HW175279   1.952   0.771   7.648
24424SOL    HW275280   1.805   0.808   7.655
24425SOL     OW75281   8.797   9.512  10.996
24425SOL    HW175282   8.757   9.564  11.066
24425SOL    HW275283   8.891   9.532  11.002
24426SOL     OW75284   5.676   2.887   1.060
24426SOL    HW175285   5.644   2.815   1.006
24426SOL    HW275286   5.756   2.853   1.100
24427SOL     OW75287   6.971   6.017   5.849
24427SOL    HW175288   6.934   6.068   5.777
24427SOL    HW275289   7.066   6.022   5.836
24428SOL     OW75290  10.487   5.542   7.984
24428SOL    HW175291  10.398   5.545   7.949
24428SOL    HW275292  10.517   5.633   7.981
24429SOL     OW75293  10.738   6.792   0.103
24429SOL    HW175294  10.651   6.788   0.143
24429SOL    HW275295  10.798   6.777   0.176
24430SOL     OW75296   2.137   6.453   1.343
24430SOL    HW175297   2.227   6.443   1.312
24430SOL    HW275298   2.084   6.448   1.263
24431SOL     OW75299   9.153   3.218   4.510
24431SOL    HW175300   9.152   3.306   4.547
24431SOL    HW275301   9.191   3.229   4.423
24432SOL     OW75302   4.534   9.748   3.627
24432SOL    HW175303   4.484   9.756   3.545
24432SOL    HW275304   4.517   9.829   3.673
24433SOL     OW75305  10.245   9.273  10.888
24433SOL    HW175306  10.293   9.222  10.822
24433SOL    HW275307  10.213   9.349  10.841
24434SOL     OW75308   8.892  10.608   3.201
24434SOL    HW175309   8.860  10.547   3.134
24434SOL    HW275310   8.924  10.683   3.151
24435SOL     OW75311   0.770   1.976   6.863
24435SOL    HW175312   0.773   1.981   6.767
24435SOL    HW275313   0.686   1.934   6.882
24436SOL     OW75314   9.990   7.538   4.903
24436SOL    HW175315   9.911   7.485   4.911
24436SOL    HW275316  10.061   7.474   4.904
24437SOL     OW75317   0.469   9.076   4.534
24437SOL    HW175318   0.533   9.146   4.550
24437SOL    HW275319   0.384   9.118   4.543
24438SOL     OW75320   5.823   5.170   7.589
24438SOL    HW175321   5.914   5.155   7.565
24438SOL    HW275322   5.777   5.091   7.559
24439SOL     OW75323   5.631   6.721   3.825
24439SOL    HW175324   5.626   6.747   3.917
24439SOL    HW275325   5.571   6.647   3.817
24440SOL     OW75326   8.010   3.500  11.041
24440SOL    HW175327   7.984   3.428  11.098
24440SOL    HW275328   7.939   3.563  11.048
24441SOL     OW75329   7.344   6.322   2.928
24441SOL    HW175330   7.397   6.247   2.899
24441SOL    HW275331   7.304   6.293   3.010
24442SOL     OW75332   2.230  10.164   1.803
24442SOL    HW175333   2.321  10.144   1.827
24442SOL    HW275334   2.213  10.249   1.842
24443SOL     OW75335   6.281   0.413   9.304
24443SOL    HW175336   6.193   0.378   9.319
24443SOL    HW275337   6.274   0.460   9.221
24444SOL     OW75338   1.566   7.180  10.345
24444SOL    HW175339   1.501   7.202  10.278
24444SOL    HW275340   1.517   7.129  10.410
24445SOL     OW75341   6.578   3.691   9.618
24445SOL    HW175342   6.555   3.689   9.711
24445SOL    HW275343   6.616   3.605   9.601
24446SOL     OW75344   9.949   2.729   4.788
24446SOL    HW175345   9.865   2.691   4.814
24446SOL    HW275346   9.976   2.677   4.712
24447SOL     OW75347   1.634   7.888   1.125
24447SOL    HW175348   1.644   7.982   1.114
24447SOL    HW275349   1.589   7.878   1.209
24448SOL     OW75350   2.935   4.843   5.841
24448SOL    HW175351   2.991   4.778   5.884
24448SOL    HW275352   2.996   4.909   5.808
24449SOL     OW75353   6.361   8.156   2.097
24449SOL    HW175354   6.442   8.169   2.047
24449SOL    HW275355   6.362   8.062   2.119
24450SOL     OW75356   1.249   2.256  10.278
24450SOL    HW175357   1.262   2.241  10.184
24450SOL    HW275358   1.154   2.256  10.289
24451SOL     OW75359   5.809   2.091   8.799
24451SOL    HW175360   5.808   2.167   8.741
24451SOL    HW275361   5.733   2.039   8.773
24452SOL     OW75362   8.601   3.417   3.755
24452SOL    HW175363   8.506   3.422   3.746
24452SOL    HW275364   8.629   3.507   3.768
24453SOL     OW75365   4.672   1.250   9.255
24453SOL    HW175366   4.716   1.196   9.321
24453SOL    HW275367   4.594   1.283   9.299
24454SOL     OW75368   3.867   3.728   6.701
24454SOL    HW175369   3.908   3.731   6.614
24454SOL    HW275370   3.802   3.798   6.699
24455SOL     OW75371   7.244   6.574   8.793
24455SOL    HW175372   7.185   6.611   8.728
24455SOL    HW275373   7.214   6.609   8.876
24456SOL     OW75374   2.813   1.383   9.829
24456SOL    HW175375   2.873   1.370   9.755
24456SOL    HW275376   2.781   1.472   9.818
24457SOL     OW75377  11.000   1.177   7.069
24457SOL    HW175378  10.989   1.175   7.164
24457SOL    HW275379  10.965   1.093   7.039
24458SOL     OW75380   5.322   3.631   9.175
24458SOL    HW175381   5.328   3.566   9.245
24458SOL    HW275382   5.413   3.652   9.154
24459SOL     OW75383   1.446   3.771   3.225
24459SOL    HW175384   1.504   3.797   3.153
24459SOL    HW275385   1.479   3.819   3.301
24460SOL     OW75386   4.704   4.377   5.660
24460SOL    HW175387   4.688   4.462   5.700
24460SOL    HW275388   4.799   4.369   5.657
24461SOL     OW75389   7.009  10.367   7.230
24461SOL    HW175390   7.103  10.372   7.210
24461SOL    HW275391   6.999  10.418   7.310
24462SOL     OW75392   6.685   3.137   4.733
24462SOL    HW175393   6.642   3.147   4.818
24462SOL    HW275394   6.668   3.219   4.687
24463SOL     OW75395   1.779   6.879   5.218
24463SOL    HW175396   1.762   6.958   5.268
24463SOL    HW275397   1.845   6.905   5.153
24464SOL     OW75398   6.307   2.894   2.482
24464SOL    HW175399   6.344   2.833   2.546
24464SOL    HW275400   6.351   2.977   2.499
24465SOL     OW75401  10.104  11.004   4.131
24465SOL    HW175402  10.035  11.067   4.110
24465SOL    HW275403  10.164  11.008   4.056
24466SOL     OW75404   0.771   4.195   5.604
24466SOL    HW175405   0.789   4.138   5.529
24466SOL    HW275406   0.854   4.241   5.619
24467SOL     OW75407   7.116   5.052   2.905
24467SOL    HW175408   7.072   5.019   2.826
24467SOL    HW275409   7.148   4.973   2.949
24468SOL     OW75410   0.725   0.211   3.432
24468SOL    HW175411   0.751   0.258   3.511
24468SOL    HW275412   0.637   0.179   3.450
24469SOL     OW75413   7.900   5.970   3.703
24469SOL    HW175414   7.901   5.959   3.608
24469SOL    HW275415   7.992   5.978   3.727
24470SOL     OW75416   2.509   1.609  10.695
24470SOL    HW175417   2.504   1.527  10.744
24470SOL    HW275418   2.565   1.665  10.748
24471SOL     OW75419   3.556   1.777  10.893
24471SOL    HW175420   3.616   1.715  10.935
24471SOL    HW275421   3.597   1.795  10.808
24472SOL     OW75422   9.391   9.744   1.068
24472SOL    HW175423   9.479   9.752   1.030
24472SOL    HW275424   9.407   9.725   1.160
24473SOL     OW75425   5.441  10.477   3.229
24473SOL    HW175426   5.479  10.529   3.158
24473SOL    HW275427   5.501  10.491   3.302
24474SOL     OW75428   3.041   7.524   2.948
24474SOL    HW175429   3.039   7.619   2.951
24474SOL    HW275430   2.949   7.498   2.953
24475SOL     OW75431   6.604   8.173   9.012
24475SOL    HW175432   6.551   8.252   9.020
24475SOL    HW275433   6.572   8.115   9.081
24476SOL     OW75434   0.022  10.093   2.640
24476SOL    HW175435   0.040  10.158   2.572
24476SOL    HW275436   0.045  10.009   2.600
24477SOL     OW75437  10.705   8.988   9.394
24477SOL    HW175438  10.654   8.957   9.468
24477SOL    HW275439  10.767   9.050   9.431
24478SOL     OW75440   5.714  10.652   8.280
24478SOL    HW175441   5.792  10.637   8.226
24478SOL    HW275442   5.643  10.664   8.217
24479SOL     OW75443  10.865   0.429   0.172
24479SOL    HW175444  10.772   0.437   0.150
24479SOL    HW275445  10.882   0.335   0.168
24480SOL     OW75446   7.701  10.342   9.814
24480SOL    HW175447   7.619  10.292   9.817
24480SOL    HW275448   7.687  10.416   9.872
24481SOL     OW75449   3.642   1.870   2.362
24481SOL    HW175450   3.721   1.819   2.344
24481SOL    HW275451   3.573   1.804   2.372
24482SOL     OW75452   6.594   7.875   5.650
24482SOL    HW175453   6.628   7.964   5.651
24482SOL    HW275454   6.666   7.821   5.682
24483SOL     OW75455   4.135   6.148   2.772
24483SOL    HW175456   4.124   6.196   2.854
24483SOL    HW275457   4.220   6.104   2.781
24484SOL     OW75458   8.398   3.866   3.289
24484SOL    HW175459   8.473   3.892   3.235
24484SOL    HW275460   8.418   3.901   3.376
24485SOL     OW75461  10.657   2.710   9.905
24485SOL    HW175462  10.715   2.757   9.845
24485SOL    HW275463  10.699   2.625   9.917
24486SOL     OW75464   1.792  11.072  10.885
24486SOL    HW175465   1.872  11.047  10.839
24486SOL    HW275466   1.797  11.025  10.968
24487SOL     OW75467  10.273   0.539   3.591
24487SOL    HW175468  10.212   0.564   3.521
24487SOL    HW275469  10.252   0.447   3.609
24488SOL     OW75470   4.988   3.084  10.749
24488SOL    HW175471   5.076   3.057  10.774
24488SOL    HW275472   4.980   3.058  10.657
24489SOL     OW75473   5.896   8.700   5.314
24489SOL    HW175474   5.823   8.642   5.292
24489SOL    HW275475   5.859   8.763   5.375
24490SOL     OW75476   8.175   0.765   2.801
24490SOL    HW175477   8.232   0.745   2.726
24490SOL    HW275478   8.154   0.679   2.838
24491SOL     OW75479   0.513   6.676   1.806
24491SOL    HW175480   0.480   6.750   1.856
24491SOL    HW275481   0.436   6.622   1.789
24492SOL     OW75482   0.919   3.215   3.469
24492SOL    HW175483   0.890   3.186   3.382
24492SOL    HW275484   0.873   3.157   3.530
24493SOL     OW75485   5.750   3.156   6.811
24493SOL    HW175486   5.806   3.201   6.874
24493SOL    HW275487   5.704   3.226   6.765
24494SOL     OW75488   9.022   3.540   8.722
24494SOL    HW175489   9.074   3.524   8.801
24494SOL    HW275490   8.962   3.610   8.746
24495SOL     OW75491   9.761   4.457   1.461
24495SOL    HW175492   9.841   4.499   1.430
24495SOL    HW275493   9.766   4.464   1.556
24496SOL     OW75494   3.736   9.060  10.729
24496SOL    HW175495   3.684   8.998  10.780
24496SOL    HW275496   3.826   9.027  10.736
24497SOL     OW75497   5.501   5.585   1.371
24497SOL    HW175498   5.462   5.560   1.454
24497SOL    HW275499   5.517   5.679   1.379
24498SOL     OW75500   6.180   7.599   4.050
24498SOL    HW175501   6.252   7.588   4.112
24498SOL    HW275502   6.136   7.679   4.078
24499SOL     OW75503   6.022   2.346   6.443
24499SOL    HW175504   6.011   2.372   6.351
24499SOL    HW275505   6.076   2.415   6.481
24500SOL     OW75506   1.271   2.932   7.456
24500SOL    HW175507   1.222   2.869   7.403
24500SOL    HW275508   1.238   3.017   7.429
24501SOL     OW75509   0.568   4.013   8.174
24501SOL    HW175510   0.533   4.045   8.091
24501SOL    HW275511   0.640   3.954   8.149
24502SOL     OW75512   5.311   4.375   9.887
24502SOL    HW175513   5.255   4.418   9.951
24502SOL    HW275514   5.274   4.399   9.802
24503SOL     OW75515   8.042   6.728   1.692
24503SOL    HW175516   8.031   6.669   1.766
24503SOL    HW275517   7.954   6.741   1.658
24504SOL     OW75518   7.777   4.789  10.930
24504SOL    HW175519   7.709   4.831  10.982
24504SOL    HW275520   7.857   4.797  10.983
24505SOL     OW75521   0.240   4.541  10.833
24505SOL    HW175522   0.200   4.530  10.919
24505SOL    HW275523   0.173   4.510  10.771
24506SOL     OW75524   6.888  10.750   2.141
24506SOL    HW175525   6.820  10.688   2.113
24506SOL    HW275526   6.874  10.827   2.086
24507SOL     OW75527   6.112   1.089   3.933
24507SOL    HW175528   6.150   1.011   3.973
24507SOL    HW275529   6.107   1.068   3.839
24508SOL     OW75530   9.598   9.804   9.073
24508SOL    HW175531   9.627   9.763   8.991
24508SOL    HW275532   9.574   9.893   9.047
24509SOL     OW75533   0.837   5.784  10.013
24509SOL    HW175534   0.758   5.781   9.959
24509SOL    HW275535   0.887   5.707   9.986
24510SOL     OW75536   6.919   5.253   0.542
24510SOL    HW175537   6.941   5.160   0.536
24510SOL    HW275538   6.837   5.255   0.591
24511SOL     OW75539   5.319   1.484   4.137
24511SOL    HW175540   5.279   1.406   4.097
24511SOL    HW275541   5.257   1.512   4.204
24512SOL     OW75542   7.773   4.237   1.378
24512SOL    HW175543   7.726   4.243   1.461
24512SOL    HW275544   7.763   4.323   1.338
24513SOL     OW75545   5.648   4.833   2.377
24513SOL    HW175546   5.591   4.887   2.322
24513SOL    HW275547   5.610   4.840   2.464
24514SOL     OW75548   4.805   7.155   4.013
24514SOL    HW175549   4.762   7.072   4.034
24514SOL    HW275550   4.760   7.186   3.934
24515SOL     OW75551   1.849   1.550   6.631
24515SOL    HW175552   1.889   1.619   6.684
24515SOL    HW275553   1.888   1.561   6.544
24516SOL     OW75554   5.609   3.662   2.197
24516SOL    HW175555   5.621   3.747   2.238
24516SOL    HW275556   5.646   3.599   2.259
24517SOL     OW75557   4.862   7.582  11.091
24517SOL    HW175558   4.957   7.586  11.081
24517SOL    HW275559   4.848   7.539  11.175
24518SOL     OW75560  10.853   7.741   0.720
24518SOL    HW175561  10.787   7.690   0.672
24518SOL    HW275562  10.922   7.757   0.655
24519SOL     OW75563   6.336   2.509   3.989
24519SOL    HW175564   6.370   2.424   4.018
24519SOL    HW275565   6.273   2.534   4.056
24520SOL     OW75566   6.285   1.104  10.222
24520SOL    HW175567   6.264   1.121  10.313
24520SOL    HW275568   6.368   1.055  10.225
24521SOL     OW75569   7.068   7.968  10.741
24521SOL    HW175570   7.117   8.007  10.813
24521SOL    HW275571   7.108   7.882  10.729
24522SOL     OW75572   1.627   5.313  10.780
24522SOL    HW175573   1.548   5.263  10.799
24522SOL    HW275574   1.613   5.398  10.821
24523SOL     OW75575  10.190   0.471   0.981
24523SOL    HW175576  10.180   0.565   0.969
24523SOL    HW275577  10.103   0.435   0.965
24524SOL     OW75578   4.889   2.481   6.693
24524SOL    HW175579   4.947   2.549   6.728
24524SOL    HW275580   4.809   2.527   6.669
24525SOL     OW75581   1.115   1.196   9.537
24525SOL    HW175582   1.039   1.140   9.522
24525SOL    HW275583   1.179   1.167   9.472
24526SOL     OW75584   8.264   6.078  10.801
24526SOL    HW175585   8.244   6.150  10.860
24526SOL    HW275586   8.230   6.000  10.846
24527SOL     OW75587   8.455   1.066   7.942
24527SOL    HW175588   8.541   1.062   7.984
24527SOL    HW275589   8.462   1.004   7.869
24528SOL     OW75590   0.135   0.793   4.790
24528SOL    HW175591   0.193   0.863   4.762
24528SOL    HW275592   0.191   0.716   4.795
24529SOL     OW75593   3.802   5.485   2.403
24529SOL    HW175594   3.801   5.403   2.352
24529SOL    HW275595   3.892   5.491   2.435
24530SOL     OW75596   9.825   8.173  10.576
24530SOL    HW175597   9.854   8.263  10.591
24530SOL    HW275598   9.743   8.182  10.528
24531SOL     OW75599   3.997   2.544   4.980
24531SOL    HW175600   3.915   2.502   4.954
24531SOL    HW275601   4.065   2.483   4.951
24532SOL     OW75602   5.823   7.650   3.158
24532SOL    HW175603   5.809   7.643   3.063
24532SOL    HW275604   5.742   7.618   3.197
24533SOL     OW75605   2.295   8.474   4.024
24533SOL    HW175606   2.221   8.512   4.071
24533SOL    HW275607   2.364   8.540   4.029
24534SOL     OW75608   0.440   6.923   2.782
24534SOL    HW175609   0.409   6.833   2.774
24534SOL    HW275610   0.425   6.945   2.873
24535SOL     OW75611   9.511   9.473   7.644
24535SOL    HW175612   9.561   9.541   7.688
24535SOL    HW275613   9.523   9.491   7.550
24536SOL     OW75614   1.090   7.007  10.161
24536SOL    HW175615   1.057   6.960  10.084
24536SOL    HW275616   1.025   7.075  10.177
24537SOL     OW75617   2.140   3.998   7.075
24537SOL    HW175618   2.083   4.032   7.006
24537SOL    HW275619   2.194   4.072   7.101
24538SOL     OW75620   4.039   1.522   5.209
24538SOL    HW175621   4.113   1.576   5.181
24538SOL    HW275622   3.990   1.577   5.270
24539SOL     OW75623   6.062   1.560   3.361
24539SOL    HW175624   6.036   1.487   3.304
24539SOL    HW275625   6.090   1.628   3.300
24540SOL     OW75626  10.314   6.468   1.205
24540SOL    HW175627  10.319   6.374   1.185
24540SOL    HW275628  10.305   6.509   1.119
24541SOL     OW75629   3.277   5.591   5.153
24541SOL    HW175630   3.333   5.562   5.225
24541SOL    HW275631   3.301   5.682   5.138
24542SOL     OW75632   7.421  10.019   1.074
24542SOL    HW175633   7.380  10.086   1.128
24542SOL    HW275634   7.385   9.937   1.107
24543SOL     OW75635   1.449   1.535   8.217
24543SOL    HW175636   1.372   1.589   8.200
24543SOL    HW275637   1.438   1.505   8.307
24544SOL     OW75638   2.609   4.142   8.776
24544SOL    HW175639   2.537   4.149   8.714
24544SOL    HW275640   2.568   4.114   8.857
24545SOL     OW75641   2.452   1.100   6.717
24545SOL    HW175642   2.447   1.007   6.695
24545SOL    HW275643   2.455   1.144   6.632
24546SOL     OW75644   5.625   8.164   6.863
24546SOL    HW175645   5.680   8.227   6.910
24546SOL    HW275646   5.552   8.146   6.922
24547SOL     OW75647   7.554   6.723   4.122
24547SOL    HW175648   7.486   6.788   4.139
24547SOL    HW275649   7.621   6.741   4.188
24548SOL     OW75650   6.879   1.457   0.805
24548SOL    HW175651   6.927   1.387   0.849
24548SOL    HW275652   6.942   1.493   0.743
24549SOL     OW75653   5.709   8.514   4.767
24549SOL    HW175654   5.662   8.584   4.811
24549SOL    HW275655   5.761   8.472   4.836
24550SOL     OW75656   4.206   1.866   6.009
24550SOL    HW175657   4.273   1.909   6.062
24550SOL    HW275658   4.176   1.934   5.949
24551SOL     OW75659   4.073   5.135   0.153
24551SOL    HW175660   4.130   5.122   0.230
24551SOL    HW275661   4.133   5.157   0.082
24552SOL     OW75662   8.993   4.537   2.979
24552SOL    HW175663   8.942   4.531   3.059
24552SOL    HW275664   8.959   4.466   2.924
24553SOL     OW75665   9.598   2.256   0.726
24553SOL    HW175666   9.574   2.164   0.715
24553SOL    HW275667   9.683   2.264   0.683
24554SOL     OW75668   0.737   6.838   0.753
24554SOL    HW175669   0.644   6.816   0.749
24554SOL    HW275670   0.781   6.759   0.721
24555SOL     OW75671   4.615   9.168   4.143
24555SOL    HW175672   4.551   9.156   4.213
24555SOL    HW275673   4.621   9.082   4.101
24556SOL     OW75674   5.012   1.705  10.458
24556SOL    HW175675   5.083   1.683  10.398
24556SOL    HW275676   4.948   1.750  10.403
24557SOL     OW75677   0.828   4.986   8.857
24557SOL    HW175678   0.909   4.939   8.834
24557SOL    HW275679   0.758   4.926   8.830
24558SOL     OW75680   8.781   3.501   0.420
24558SOL    HW175681   8.865   3.528   0.457
24558SOL    HW275682   8.728   3.476   0.495
24559SOL     OW75683   6.043   9.707   3.596
24559SOL    HW175684   6.003   9.794   3.599
24559SOL    HW275685   6.077   9.692   3.684
24560SOL     OW75686   6.563   5.026   4.709
24560SOL    HW175687   6.625   5.099   4.704
24560SOL    HW275688   6.543   5.005   4.617
24561SOL     OW75689   9.360   9.974   7.893
24561SOL    HW175690   9.299  10.036   7.933
24561SOL    HW275691   9.332   9.968   7.801
24562SOL     OW75692   6.615   1.203   4.624
24562SOL    HW175693   6.595   1.141   4.554
24562SOL    HW275694   6.530   1.230   4.656
24563SOL     OW75695   3.810   0.379   1.605
24563SOL    HW175696   3.728   0.429   1.608
24563SOL    HW275697   3.802   0.324   1.526
24564SOL     OW75698   0.149   7.680   1.572
24564SOL    HW175699   0.195   7.673   1.655
24564SOL    HW275700   0.093   7.757   1.582
24565SOL     OW75701   5.346   7.360   9.771
24565SOL    HW175702   5.335   7.294   9.702
24565SOL    HW275703   5.314   7.317   9.850
24566SOL     OW75704   5.517   5.219   4.141
24566SOL    HW175705   5.466   5.261   4.210
24566SOL    HW275706   5.539   5.132   4.176
24567SOL     OW75707   2.952  11.010   3.323
24567SOL    HW175708   2.919  10.966   3.244
24567SOL    HW275709   3.035  11.049   3.295
24568SOL     OW75710   9.972   2.104   0.442
24568SOL    HW175711  10.058   2.086   0.404
24568SOL    HW275712   9.912   2.102   0.367
24569SOL     OW75713   9.740   8.527   9.146
24569SOL    HW175714   9.822   8.573   9.126
24569SOL    HW275715   9.699   8.513   9.060
24570SOL     OW75716   8.119   2.651   4.241
24570SOL    HW175717   8.061   2.720   4.273
24570SOL    HW275718   8.207   2.685   4.255
24571SOL     OW75719   1.801   5.114   3.178
24571SOL    HW175720   1.761   5.033   3.210
24571SOL    HW275721   1.846   5.150   3.254
24572SOL     OW75722   5.629   9.480   6.029
24572SOL    HW175723   5.569   9.513   6.096
24572SOL    HW275724   5.589   9.506   5.946
24573SOL     OW75725   4.384   2.553   4.586
24573SOL    HW175726   4.308   2.513   4.543
24573SOL    HW275727   4.368   2.647   4.579
24574SOL     OW75728   7.271   1.758   5.952
24574SOL    HW175729   7.315   1.805   5.881
24574SOL    HW275730   7.178   1.765   5.931
24575SOL     OW75731   2.874   1.902   0.371
24575SOL    HW175732   2.829   1.823   0.402
24575SOL    HW275733   2.934   1.870   0.304
24576SOL     OW75734   2.570   0.917   4.650
24576SOL    HW175735   2.611   0.933   4.735
24576SOL    HW275736   2.644   0.906   4.589
24577SOL     OW75737   6.618   9.462  10.124
24577SOL    HW175738   6.713   9.474  10.119
24577SOL    HW275739   6.594   9.496  10.210
24578SOL     OW75740   0.803   4.292   6.452
24578SOL    HW175741   0.781   4.334   6.369
24578SOL    HW275742   0.894   4.317   6.468
24579SOL     OW75743  10.604   2.858   1.384
24579SOL    HW175744  10.604   2.863   1.288
24579SOL    HW275745  10.547   2.929   1.412
24580SOL     OW75746   4.126   6.871   4.331
24580SOL    HW175747   4.168   6.921   4.401
24580SOL    HW275748   4.109   6.785   4.370
24581SOL     OW75749   9.072   8.583   4.619
24581SOL    HW175750   9.094   8.509   4.561
24581SOL    HW275751   9.029   8.646   4.561
24582SOL     OW75752   4.807   3.070   2.492
24582SOL    HW175753   4.792   3.149   2.544
24582SOL    HW275754   4.898   3.045   2.512
24583SOL     OW75755   7.049   6.158   1.553
24583SOL    HW175756   7.108   6.084   1.537
24583SOL    HW275757   6.973   6.140   1.498
24584SOL     OW75758   9.216  10.329   5.748
24584SOL    HW175759   9.150  10.278   5.794
24584SOL    HW275760   9.221  10.411   5.796
24585SOL     OW75761   2.847   9.326   8.708
24585SOL    HW175762   2.847   9.305   8.614
24585SOL    HW275763   2.767   9.285   8.741
24586SOL     OW75764   2.239   8.340   4.711
24586SOL    HW175765   2.289   8.421   4.702
24586SOL    HW275766   2.290   8.275   4.662
24587SOL     OW75767   7.323   2.377   2.010
24587SOL    HW175768   7.376   2.299   1.994
24587SOL    HW275769   7.235   2.352   1.982
24588SOL     OW75770   6.149   7.201   1.496
24588SOL    HW175771   6.083   7.180   1.429
24588SOL    HW275772   6.124   7.148   1.572
24589SOL     OW75773   3.321   0.583   3.508
24589SOL    HW175774   3.405   0.604   3.467
24589SOL    HW275775   3.262   0.652   3.479
24590SOL     OW75776   2.751   6.264   0.347
24590SOL    HW175777   2.842   6.292   0.360
24590SOL    HW275778   2.750   6.225   0.259
24591SOL     OW75779   7.014   0.193   3.597
24591SOL    HW175780   7.107   0.196   3.621
24591SOL    HW275781   7.009   0.127   3.528
24592SOL     OW75782   6.968   3.057   6.256
24592SOL    HW175783   6.938   2.970   6.282
24592SOL    HW275784   6.926   3.116   6.318
24593SOL     OW75785   2.813   4.241   4.807
24593SOL    HW175786   2.897   4.286   4.805
24593SOL    HW275787   2.783   4.243   4.716
24594SOL     OW75788   5.581   0.131   2.573
24594SOL    HW175789   5.518   0.086   2.516
24594SOL    HW275790   5.547   0.118   2.661
24595SOL     OW75791   6.689   7.158   7.937
24595SOL    HW175792   6.771   7.207   7.943
24595SOL    HW275793   6.711   7.070   7.967
24596SOL     OW75794   6.598  10.643   2.855
24596SOL    HW175795   6.513  10.659   2.896
24596SOL    HW275796   6.625  10.728   2.821
24597SOL     OW75797   1.331   0.815   2.361
24597SOL    HW175798   1.266   0.759   2.404
24597SOL    HW275799   1.345   0.774   2.275
24598SOL     OW75800   9.314   6.523   2.757
24598SOL    HW175801   9.317   6.428   2.743
24598SOL    HW275802   9.375   6.558   2.692
24599SOL     OW75803   1.667  10.857   8.019
24599SOL    HW175804   1.649  10.876   8.111
24599SOL    HW275805   1.585  10.875   7.973
24600SOL     OW75806   3.359   3.526   9.320
24600SOL    HW175807   3.399   3.612   9.307
24600SOL    HW275808   3.430   3.464   9.304
24601SOL     OW75809  10.624   1.497   1.873
24601SOL    HW175810  10.659   1.412   1.846
24601SOL    HW275811  10.701   1.553   1.879
24602SOL     OW75812   2.878   5.781   2.316
24602SOL    HW175813   2.873   5.778   2.220
24602SOL    HW275814   2.935   5.707   2.339
24603SOL     OW75815   5.979   7.950   4.488
24603SOL    HW175816   5.886   7.937   4.508
24603SOL    HW275817   6.025   7.920   4.566
24604SOL     OW75818   4.156   4.703  10.531
24604SOL    HW175819   4.134   4.793  10.553
24604SOL    HW275820   4.249   4.705  10.509
24605SOL     OW75821   3.854   8.615   2.988
24605SOL    HW175822   3.911   8.547   3.025
24605SOL    HW275823   3.768   8.598   3.026
24606SOL     OW75824   6.895   3.422   9.104
24606SOL    HW175825   6.909   3.468   9.186
24606SOL    HW275826   6.821   3.467   9.063
24607SOL     OW75827   3.938   1.683   2.007
24607SOL    HW175828   3.851   1.664   1.971
24607SOL    HW275829   3.964   1.765   1.965
24608SOL     OW75830  10.311   0.200   5.126
24608SOL    HW175831  10.299   0.106   5.109
24608SOL    HW275832  10.243   0.221   5.190
24609SOL     OW75833   9.956   8.011   3.549
24609SOL    HW175834   9.896   8.007   3.474
24609SOL    HW275835  10.039   8.039   3.511
24610SOL     OW75836   3.858  10.999   0.769
24610SOL    HW175837   3.909  10.978   0.847
24610SOL    HW275838   3.892  10.939   0.702
24611SOL     OW75839   7.624  11.037   2.305
24611SOL    HW175840   7.642  11.119   2.350
24611SOL    HW275841   7.626  10.971   2.374
24612SOL     OW75842   5.216   1.375   9.670
24612SOL    HW175843   5.123   1.391   9.683
24612SOL    HW275844   5.229   1.285   9.700
24613SOL     OW75845   7.152   0.039   4.376
24613SOL    HW175846   7.138   0.042   4.281
24613SOL    HW275847   7.084   0.096   4.412
24614SOL     OW75848   1.383   1.404   9.737
24614SOL    HW175849   1.348   1.315   9.741
24614SOL    HW275850   1.317   1.457   9.781
24615SOL     OW75851   1.734   2.823   3.990
24615SOL    HW175852   1.796   2.785   4.052
24615SOL    HW275853   1.668   2.755   3.978
24616SOL     OW75854   5.314   1.500   6.114
24616SOL    HW175855   5.226   1.538   6.115
24616SOL    HW275856   5.301   1.410   6.144
24617SOL     OW75857   0.525  10.354  10.788
24617SOL    HW175858   0.586  10.419  10.754
24617SOL    HW275859   0.581  10.283  10.820
24618SOL     OW75860   4.203   4.487   5.523
24618SOL    HW175861   4.267   4.551   5.493
24618SOL    HW275862   4.126   4.503   5.469
24619SOL     OW75863   9.825   6.885   3.670
24619SOL    HW175864   9.851   6.923   3.586
24619SOL    HW275865   9.843   6.953   3.734
24620SOL     OW75866   7.007   4.587   4.089
24620SOL    HW175867   6.932   4.598   4.030
24620SOL    HW275868   6.984   4.511   4.143
24621SOL     OW75869   1.332   0.912  10.741
24621SOL    HW175870   1.422   0.938  10.763
24621SOL    HW275871   1.342   0.850  10.668
24622SOL     OW75872  10.347   5.139   6.178
24622SOL    HW175873  10.435   5.162   6.149
24622SOL    HW275874  10.306   5.222   6.200
24623SOL     OW75875   1.437   9.272   9.965
24623SOL    HW175876   1.450   9.313   9.880
24623SOL    HW275877   1.397   9.187   9.944
24624SOL     OW75878   0.467   0.172   2.728
24624SOL    HW175879   0.451   0.242   2.791
24624SOL    HW275880   0.417   0.097   2.761
24625SOL     OW75881  10.391   1.666   4.809
24625SOL    HW175882  10.360   1.748   4.846
24625SOL    HW275883  10.484   1.681   4.790
24626SOL     OW75884   6.547  10.190   2.155
24626SOL    HW175885   6.626  10.226   2.115
24626SOL    HW275886   6.480  10.197   2.087
24627SOL     OW75887   9.159   1.237   4.616
24627SOL    HW175888   9.225   1.175   4.647
24627SOL    HW275889   9.196   1.271   4.534
24628SOL     OW75890   6.940   2.667   8.469
24628SOL    HW175891   6.990   2.746   8.490
24628SOL    HW275892   6.993   2.622   8.403
24629SOL     OW75893   8.537   4.895   5.795
24629SOL    HW175894   8.612   4.836   5.786
24629SOL    HW275895   8.526   4.905   5.889
24630SOL     OW75896   5.440   0.424   2.758
24630SOL    HW175897   5.375   0.417   2.688
24630SOL    HW275898   5.453   0.333   2.787
24631SOL     OW75899   6.860   7.560   2.883
24631SOL    HW175900   6.837   7.559   2.790
24631SOL    HW275901   6.860   7.652   2.907
24632SOL     OW75902   6.049   2.187  11.079
24632SOL    HW175903   6.107   2.145  11.142
24632SOL    HW275904   5.964   2.191  11.123
24633SOL     OW75905   5.437   3.475   0.156
24633SOL    HW175906   5.512   3.533   0.148
24633SOL    HW275907   5.364   3.532   0.178
24634SOL     OW75908   4.615   2.155   2.711
24634SOL    HW175909   4.541   2.127   2.764
24634SOL    HW275910   4.691   2.142   2.767
24635SOL     OW75911   1.439   1.662   1.874
24635SOL    HW175912   1.357   1.627   1.838
24635SOL    HW275913   1.491   1.685   1.796
24636SOL     OW75914  10.244   2.352   0.400
24636SOL    HW175915  10.239   2.259   0.377
24636SOL    HW275916  10.238   2.354   0.495
24637SOL     OW75917   6.652   9.536   0.458
24637SOL    HW175918   6.592   9.502   0.392
24637SOL    HW275919   6.694   9.458   0.495
24638SOL     OW75920   6.847   0.003   4.075
24638SOL    HW175921   6.908  -0.050   4.127
24638SOL    HW275922   6.903   0.054   4.017
24639SOL     OW75923   7.951   0.254   5.812
24639SOL    HW175924   7.909   0.277   5.894
24639SOL    HW275925   8.006   0.179   5.833
24640SOL     OW75926   7.214   8.872   2.837
24640SOL    HW175927   7.139   8.824   2.801
24640SOL    HW275928   7.289   8.842   2.784
24641SOL     OW75929   3.253   4.725   9.997
24641SOL    HW175930   3.210   4.783   9.934
24641SOL    HW275931   3.197   4.728  10.074
24642SOL     OW75932   7.706   1.424   1.961
24642SOL    HW175933   7.730   1.341   2.003
24642SOL    HW275934   7.745   1.492   2.016
24643SOL     OW75935   2.205   0.413   1.874
24643SOL    HW175936   2.114   0.441   1.871
24643SOL    HW275937   2.201   0.318   1.884
24644SOL     OW75938   7.802  10.171   6.130
24644SOL    HW175939   7.836  10.083   6.115
24644SOL    HW275940   7.709  10.158   6.147
24645SOL     OW75941   6.898   2.691   3.444
24645SOL    HW175942   6.911   2.598   3.424
24645SOL    HW275943   6.934   2.702   3.532
24646SOL     OW75944   9.513   7.746   6.529
24646SOL    HW175945   9.482   7.810   6.593
24646SOL    HW275946   9.569   7.796   6.469
24647SOL     OW75947   7.479   5.167   1.668
24647SOL    HW175948   7.440   5.159   1.580
24647SOL    HW275949   7.501   5.077   1.692
24648SOL     OW75950   6.064  10.872   2.073
24648SOL    HW175951   6.117  10.842   1.999
24648SOL    HW275952   6.049  10.965   2.055
24649SOL     OW75953   7.356   1.913   5.733
24649SOL    HW175954   7.366   1.864   5.651
24649SOL    HW275955   7.293   1.981   5.712
24650SOL     OW75956   1.362   9.552   7.518
24650SOL    HW175957   1.346   9.519   7.606
24650SOL    HW275958   1.275   9.570   7.482
24651SOL     OW75959   9.771   3.369   5.408
24651SOL    HW175960   9.696   3.311   5.394
24651SOL    HW275961   9.819   3.328   5.480
24652SOL     OW75962   5.342   3.888   6.730
24652SOL    HW175963   5.285   3.862   6.802
24652SOL    HW275964   5.283   3.909   6.658
24653SOL     OW75965   8.275  10.037   5.110
24653SOL    HW175966   8.190  10.081   5.114
24653SOL    HW275967   8.339  10.105   5.131
24654SOL     OW75968   2.850  10.705   3.219
24654SOL    HW175969   2.848  10.690   3.313
24654SOL    HW275970   2.759  10.695   3.191
24655SOL     OW75971   8.520   6.225   9.401
24655SOL    HW175972   8.448   6.212   9.339
24655SOL    HW275973   8.481   6.208   9.486
24656SOL     OW75974   1.511   4.527   1.109
24656SOL    HW175975   1.536   4.615   1.136
24656SOL    HW275976   1.420   4.535   1.080
24657SOL     OW75977   7.297   1.912   0.013
24657SOL    HW175978   7.325   1.985   0.068
24657SOL    HW275979   7.351   1.919  -0.065
24658SOL     OW75980   7.529  10.035   5.043
24658SOL    HW175981   7.463  10.053   4.976
24658SOL    HW275982   7.497   9.956   5.087
24659SOL     OW75983  10.978   7.345   2.238
24659SOL    HW175984  10.946   7.433   2.257
24659SOL    HW275985  11.059   7.337   2.288
24660SOL     OW75986  10.681   4.123   5.171
24660SOL    HW175987  10.773   4.097   5.165
24660SOL    HW275988  10.635   4.041   5.189
24661SOL     OW75989   4.947   2.027   2.077
24661SOL    HW175990   4.947   1.948   2.022
24661SOL    HW275991   4.861   2.067   2.062
24662SOL     OW75992   5.548   4.330   0.565
24662SOL    HW175993   5.615   4.397   0.576
24662SOL    HW275994   5.559   4.272   0.640
24663SOL     OW75995   3.913   6.021   0.393
24663SOL    HW175996   3.880   6.001   0.305
24663SOL    HW275997   3.903   6.116   0.401
24664SOL     OW75998   8.137   1.961   8.897
24664SOL    HW175999   8.078   1.892   8.867
24664SOL    HW276000   8.081   2.037   8.910
24665SOL     OW76001   8.795   7.962   9.728
24665SOL    HW176002   8.718   8.015   9.708
24665SOL    HW276003   8.822   7.927   9.643
24666SOL     OW76004  10.069  10.473   7.271
24666SOL    HW176005  10.017  10.542   7.230
24666SOL    HW276006  10.024  10.455   7.353
24667SOL     OW76007   7.542   9.099   4.344
24667SOL    HW176008   7.520   9.168   4.281
24667SOL    HW276009   7.506   9.019   4.305
24668SOL     OW76010   3.401   6.474   5.101
24668SOL    HW176011   3.469   6.457   5.166
24668SOL    HW276012   3.378   6.387   5.067
24669SOL     OW76013   8.310   4.548   1.632
24669SOL    HW176014   8.398   4.579   1.655
24669SOL    HW276015   8.320   4.514   1.543
24670SOL     OW76016   1.231   8.627  10.048
24670SOL    HW176017   1.157   8.664  10.000
24670SOL    HW276018   1.228   8.668  10.134
24671SOL     OW76019   7.676   5.337   7.733
24671SOL    HW176020   7.621   5.373   7.663
24671SOL    HW276021   7.661   5.242   7.728
24672SOL     OW76022   2.775   4.002   1.679
24672SOL    HW176023   2.700   3.948   1.704
24672SOL    HW276024   2.764   4.083   1.729
24673SOL     OW76025   5.963   2.150   2.035
24673SOL    HW176026   5.982   2.240   2.010
24673SOL    HW276027   6.049   2.112   2.054
24674SOL     OW76028   3.499   6.876   5.708
24674SOL    HW176029   3.560   6.948   5.722
24674SOL    HW276030   3.471   6.886   5.617
24675SOL     OW76031  10.190   9.398   7.479
24675SOL    HW176032  10.132   9.472   7.498
24675SOL    HW276033  10.275   9.424   7.515
24676SOL     OW76034   8.275   4.365   7.922
24676SOL    HW176035   8.228   4.419   7.985
24676SOL    HW276036   8.300   4.286   7.970
24677SOL     OW76037   6.046   1.941   4.776
24677SOL    HW176038   5.979   1.972   4.837
24677SOL    HW276039   6.129   1.971   4.814
24678SOL     OW76040   4.590  10.548  11.075
24678SOL    HW176041   4.592  10.493  11.153
24678SOL    HW276042   4.660  10.612  11.089
24679SOL     OW76043   6.883   4.647   2.437
24679SOL    HW176044   6.849   4.663   2.525
24679SOL    HW276045   6.931   4.727   2.414
24680SOL     OW76046   8.286   1.739   3.075
24680SOL    HW176047   8.347   1.737   3.148
24680SOL    HW276048   8.259   1.647   3.064
24681SOL     OW76049   1.651   1.248   9.011
24681SOL    HW176050   1.707   1.225   8.936
24681SOL    HW276051   1.633   1.341   9.000
24682SOL     OW76052   4.311   5.897   8.046
24682SOL    HW176053   4.387   5.894   8.104
24682SOL    HW276054   4.276   5.808   8.048
24683SOL     OW76055   8.848   8.843   4.174
24683SOL    HW176056   8.782   8.827   4.241
24683SOL    HW276057   8.865   8.937   4.179
24684SOL     OW76058   4.862   7.543   2.806
24684SOL    HW176059   4.774   7.540   2.768
24684SOL    HW276060   4.864   7.624   2.856
24685SOL     OW76061   6.790   9.278   7.793
24685SOL    HW176062   6.792   9.200   7.737
24685SOL    HW276063   6.710   9.324   7.767
24686SOL     OW76064   7.398   3.792   5.766
24686SOL    HW176065   7.401   3.885   5.788
24686SOL    HW276066   7.360   3.750   5.843
24687SOL     OW76067   8.714   6.707   8.726
24687SOL    HW176068   8.686   6.776   8.786
24687SOL    HW276069   8.642   6.643   8.727
24688SOL     OW76070   6.676   0.710   0.219
24688SOL    HW176071   6.741   0.690   0.152
24688SOL    HW276072   6.726   0.749   0.290
24689SOL     OW76073   6.460   4.185   3.353
24689SOL    HW176074   6.478   4.164   3.444
24689SOL    HW276075   6.385   4.130   3.330
24690SOL     OW76076   8.976   9.990   4.284
24690SOL    HW176077   8.992   9.970   4.191
24690SOL    HW276078   9.033  10.065   4.302
24691SOL     OW76079   4.096   9.454   5.688
24691SOL    HW176080   4.090   9.363   5.657
24691SOL    HW276081   4.051   9.505   5.621
24692SOL     OW76082   4.235   1.859   9.759
24692SOL    HW176083   4.233   1.811   9.676
24692SOL    HW276084   4.233   1.951   9.733
24693SOL     OW76085   9.576   4.021   3.742
24693SOL    HW176086   9.514   3.986   3.678
24693SOL    HW276087   9.628   4.084   3.692
24694SOL     OW76088   0.883   7.134  10.338
24694SOL    HW176089   0.920   7.079  10.407
24694SOL    HW276090   0.930   7.217  10.344
24695SOL     OW76091   2.034  10.022   3.153
24695SOL    HW176092   1.991  10.011   3.237
24695SOL    HW276093   1.972   9.987   3.089
24696SOL     OW76094   6.762   2.244  10.291
24696SOL    HW176095   6.695   2.286  10.344
24696SOL    HW276096   6.728   2.156  10.276
24697SOL     OW76097   6.367   7.734   2.798
24697SOL    HW176098   6.442   7.777   2.838
24697SOL    HW276099   6.406   7.666   2.743
24698SOL     OW76100   6.361   2.009   2.327
24698SOL    HW176101   6.378   1.946   2.397
24698SOL    HW276102   6.267   2.027   2.333
24699SOL     OW76103   8.035   0.824   0.932
24699SOL    HW176104   8.113   0.769   0.923
24699SOL    HW276105   7.976   0.772   0.987
24700SOL     OW76106   4.558   1.476   0.534
24700SOL    HW176107   4.476   1.429   0.521
24700SOL    HW276108   4.546   1.558   0.486
24701SOL     OW76109   3.834   6.280   2.178
24701SOL    HW176110   3.815   6.194   2.216
24701SOL    HW276111   3.779   6.341   2.227
24702SOL     OW76112   5.848   1.027   7.726
24702SOL    HW176113   5.914   1.070   7.671
24702SOL    HW276114   5.825   0.947   7.678
24703SOL     OW76115   8.586   2.965   4.244
24703SOL    HW176116   8.596   2.938   4.335
24703SOL    HW276117   8.583   3.060   4.247
24704SOL     OW76118   5.866   9.780   7.797
24704SOL    HW176119   5.958   9.804   7.787
24704SOL    HW276120   5.818   9.862   7.786
24705SOL     OW76121   4.749   8.922   7.771
24705SOL    HW176122   4.843   8.906   7.779
24705SOL    HW276123   4.714   8.842   7.732
24706SOL     OW76124   9.996   7.743   3.849
24706SOL    HW176125   9.982   7.648   3.853
24706SOL    HW276126   9.932   7.773   3.785
24707SOL     OW76127   2.032   6.212   4.953
24707SOL    HW176128   2.076   6.243   4.874
24707SOL    HW276129   2.068   6.124   4.967
24708SOL     OW76130  10.882   3.984   9.557
24708SOL    HW176131  10.827   4.042   9.504
24708SOL    HW276132  10.932   3.933   9.493
24709SOL     OW76133   6.428   6.250   1.142
24709SOL    HW176134   6.387   6.166   1.120
24709SOL    HW276135   6.355   6.307   1.166
24710SOL     OW76136   7.917   3.210   6.722
24710SOL    HW176137   7.904   3.191   6.629
24710SOL    HW276138   8.000   3.257   6.725
24711SOL     OW76139   6.836  10.127   8.782
24711SOL    HW176140   6.915  10.078   8.805
24711SOL    HW276141   6.786  10.131   8.863
24712SOL     OW76142   1.811   1.180  10.428
24712SOL    HW176143   1.766   1.143  10.503
24712SOL    HW276144   1.766   1.262  10.411
24713SOL     OW76145   6.136  10.185   6.918
24713SOL    HW176146   6.180  10.269   6.931
24713SOL    HW276147   6.115  10.183   6.824
24714SOL     OW76148   2.033   0.743   0.387
24714SOL    HW176149   2.061   0.651   0.380
24714SOL    HW276150   2.090   0.790   0.325
24715SOL     OW76151   2.591   8.112  10.014
24715SOL    HW176152   2.573   8.069  10.097
24715SOL    HW276153   2.529   8.184  10.010
24716SOL     OW76154   9.018  10.863   3.549
24716SOL    HW176155   9.009  10.916   3.469
24716SOL    HW276156   9.071  10.788   3.522
24717SOL     OW76157   3.319   4.171   5.981
24717SOL    HW176158   3.276   4.191   5.898
24717SOL    HW276159   3.282   4.086   6.007
24718SOL     OW76160   9.196   7.170  10.755
24718SOL    HW176161   9.231   7.216  10.831
24718SOL    HW276162   9.258   7.098  10.740
24719SOL     OW76163   9.464   3.091   2.961
24719SOL    HW176164   9.534   3.030   2.936
24719SOL    HW276165   9.502   3.177   2.948
24720SOL     OW76166   7.640   1.886  10.979
24720SOL    HW176167   7.638   1.860  11.071
24720SOL    HW276168   7.614   1.807  10.931
24721SOL     OW76169   5.039   4.695   2.113
24721SOL    HW176170   5.131   4.675   2.097
24721SOL    HW276171   5.032   4.789   2.099
24722SOL     OW76172   8.924   2.761   9.606
24722SOL    HW176173   8.862   2.834   9.606
24722SOL    HW276174   9.009   2.802   9.623
24723SOL     OW76175   3.491   5.499   0.430
24723SOL    HW176176   3.540   5.456   0.359
24723SOL    HW276177   3.408   5.524   0.389
24724SOL     OW76178   2.578   0.747   4.036
24724SOL    HW176179   2.665   0.726   4.003
24724SOL    HW276180   2.581   0.724   4.129
24725SOL     OW76181   2.925   5.691   7.153
24725SOL    HW176182   3.014   5.709   7.122
24725SOL    HW276183   2.872   5.761   7.115
24726SOL     OW76184   6.685   1.250   7.219
24726SOL    HW176185   6.624   1.186   7.183
24726SOL    HW276186   6.639   1.287   7.294
24727SOL     OW76187   0.247   5.310   7.365
24727SOL    HW176188   0.302   5.330   7.440
24727SOL    HW276189   0.157   5.310   7.399
24728SOL     OW76190   5.479   7.626   3.565
24728SOL    HW176191   5.452   7.618   3.656
24728SOL    HW276192   5.573   7.644   3.569
24729SOL     OW76193   3.523   6.151   2.120
24729SOL    HW176194   3.512   6.083   2.053
24729SOL    HW276195   3.612   6.139   2.152
24730SOL     OW76196   5.331   4.715   2.890
24730SOL    HW176197   5.298   4.709   2.800
24730SOL    HW276198   5.305   4.802   2.919
24731SOL     OW76199   8.156   6.647  11.059
24731SOL    HW176200   8.074   6.600  11.045
24731SOL    HW276201   8.217   6.580  11.089
24732SOL     OW76202   3.198   7.802   0.495
24732SOL    HW176203   3.291   7.799   0.472
24732SOL    HW276204   3.192   7.869   0.563
24733SOL     OW76205   0.144   0.895   1.253
24733SOL    HW176206   0.219   0.947   1.226
24733SOL    HW276207   0.069   0.940   1.214
24734SOL     OW76208   3.712   4.709   2.433
24734SOL    HW176209   3.693   4.792   2.475
24734SOL    HW276210   3.802   4.718   2.401
24735SOL     OW76211   4.350   5.333   5.267
24735SOL    HW176212   4.255   5.320   5.261
24735SOL    HW276213   4.370   5.325   5.360
24736SOL     OW76214   9.722   0.043   5.496
24736SOL    HW176215   9.772   0.044   5.414
24736SOL    HW276216   9.690  -0.047   5.503
24737SOL     OW76217   0.682   1.155   4.887
24737SOL    HW176218   0.763   1.130   4.842
24737SOL    HW276219   0.711   1.182   4.974
24738SOL     OW76220   2.859   3.522   9.951
24738SOL    HW176221   2.883   3.493  10.039
24738SOL    HW276222   2.928   3.486   9.894
24739SOL     OW76223   9.644   8.144   2.630
24739SOL    HW176224   9.665   8.093   2.708
24739SOL    HW276225   9.729   8.174   2.598
24740SOL     OW76226   5.119   0.729   7.456
24740SOL    HW176227   5.081   0.753   7.540
24740SOL    HW276228   5.203   0.775   7.454
24741SOL     OW76229   8.116   4.590   2.438
24741SOL    HW176230   8.101   4.500   2.409
24741SOL    HW276231   8.136   4.638   2.357
24742SOL     OW76232  10.397   5.665   3.422
24742SOL    HW176233  10.370   5.663   3.330
24742SOL    HW276234  10.457   5.591   3.430
24743SOL     OW76235   5.130   8.187   4.075
24743SOL    HW176236   5.071   8.186   3.999
24743SOL    HW276237   5.212   8.224   4.041
24744SOL     OW76238   4.509   5.981   4.581
24744SOL    HW176239   4.474   5.899   4.545
24744SOL    HW276240   4.435   6.041   4.583
24745SOL     OW76241   7.380   7.619   2.359
24745SOL    HW176242   7.327   7.590   2.433
24745SOL    HW276243   7.317   7.658   2.298
24746SOL     OW76244   0.343   3.283   3.113
24746SOL    HW176245   0.287   3.360   3.119
24746SOL    HW276246   0.367   3.264   3.203
24747SOL     OW76247   9.673   0.002   1.059
24747SOL    HW176248   9.681   0.089   1.020
24747SOL    HW276249   9.612   0.014   1.132
24748SOL     OW76250   5.580   0.861   1.274
24748SOL    HW176251   5.539   0.796   1.331
24748SOL    HW276252   5.655   0.893   1.324
24749SOL     OW76253   3.089   3.321   5.333
24749SOL    HW176254   2.995   3.332   5.320
24749SOL    HW276255   3.114   3.391   5.393
24750SOL     OW76256  10.537   1.934   2.784
24750SOL    HW176257  10.488   1.963   2.860
24750SOL    HW276258  10.482   1.866   2.745
24751SOL     OW76259   1.100   0.987   4.302
24751SOL    HW176260   1.089   1.046   4.376
24751SOL    HW276261   1.183   1.013   4.262
24752SOL     OW76262   5.515   9.359   7.091
24752SOL    HW176263   5.598   9.323   7.122
24752SOL    HW276264   5.449   9.299   7.126
24753SOL     OW76265   2.426   8.258  10.244
24753SOL    HW176266   2.446   8.164  10.253
24753SOL    HW276267   2.427   8.291  10.333
24754SOL     OW76268   1.984  10.068   3.906
24754SOL    HW176269   1.963   9.976   3.889
24754SOL    HW276270   2.077  10.076   3.883
24755SOL     OW76271   5.404   5.627   8.446
24755SOL    HW176272   5.356   5.564   8.392
24755SOL    HW276273   5.403   5.708   8.395
24756SOL     OW76274   6.319   1.224   4.597
24756SOL    HW176275   6.282   1.138   4.575
24756SOL    HW276276   6.334   1.266   4.512
24757SOL     OW76277   2.376   1.378   2.826
24757SOL    HW176278   2.403   1.307   2.767
24757SOL    HW276279   2.288   1.353   2.853
24758SOL     OW76280   9.468   4.706   4.793
24758SOL    HW176281   9.446   4.613   4.787
24758SOL    HW276282   9.468   4.736   4.702
24759SOL     OW76283  10.081   7.836   6.039
24759SOL    HW176284  10.156   7.846   6.098
24759SOL    HW276285  10.119   7.841   5.951
24760SOL     OW76286   9.786   6.635   9.354
24760SOL    HW176287   9.843   6.558   9.361
24760SOL    HW276288   9.742   6.640   9.439
24761SOL     OW76289   5.551   1.800   2.179
24761SOL    HW176290   5.638   1.773   2.150
24761SOL    HW276291   5.559   1.894   2.194
24762SOL     OW76292   3.834   2.319   7.046
24762SOL    HW176293   3.887   2.263   6.989
24762SOL    HW276294   3.811   2.262   7.119
24763SOL     OW76295  11.075   2.354   5.258
24763SOL    HW176296  11.148   2.414   5.272
24763SOL    HW276297  11.112   2.267   5.276
24764SOL     OW76298   3.718   1.014   4.543
24764SOL    HW176299   3.760   0.947   4.597
24764SOL    HW276300   3.717   1.092   4.598
24765SOL     OW76301   6.670   6.090   9.022
24765SOL    HW176302   6.726   6.100   8.945
24765SOL    HW276303   6.581   6.085   8.986
24766SOL     OW76304   3.938   5.168   4.228
24766SOL    HW176305   3.943   5.076   4.255
24766SOL    HW276306   3.853   5.176   4.185
24767SOL     OW76307   6.030   2.294   7.436
24767SOL    HW176308   5.953   2.317   7.384
24767SOL    HW276309   6.101   2.287   7.371
24768SOL     OW76310   7.579  11.059   3.952
24768SOL    HW176311   7.657  11.089   3.999
24768SOL    HW276312   7.506  11.094   4.002
24769SOL     OW76313   6.150   7.373   6.700
24769SOL    HW176314   6.183   7.304   6.642
24769SOL    HW276315   6.072   7.335   6.740
24770SOL     OW76316   3.187   2.456   1.407
24770SOL    HW176317   3.179   2.361   1.415
24770SOL    HW276318   3.097   2.488   1.413
24771SOL     OW76319   4.364   9.079  10.637
24771SOL    HW176320   4.322   9.156  10.600
24771SOL    HW276321   4.375   9.099  10.730
24772SOL     OW76322   3.637   9.006   3.821
24772SOL    HW176323   3.649   9.098   3.800
24772SOL    HW276324   3.644   8.961   3.736
24773SOL     OW76325   1.917   1.241   3.090
24773SOL    HW176326   1.878   1.309   3.035
24773SOL    HW276327   1.945   1.173   3.028
24774SOL     OW76328   5.010   4.899   5.057
24774SOL    HW176329   4.980   4.914   4.967
24774SOL    HW276330   5.057   4.815   5.053
24775SOL     OW76331   0.854   8.473   0.701
24775SOL    HW176332   0.777   8.477   0.644
24775SOL    HW276333   0.876   8.564   0.718
24776SOL     OW76334   3.053   2.994   5.714
24776SOL    HW176335   3.051   2.952   5.800
24776SOL    HW276336   3.026   2.925   5.653
24777SOL     OW76337   8.610   5.774   9.439
24777SOL    HW176338   8.641   5.752   9.527
24777SOL    HW276339   8.625   5.868   9.431
24778SOL     OW76340   7.467   6.157   8.461
24778SOL    HW176341   7.444   6.236   8.510
24778SOL    HW276342   7.394   6.144   8.401
24779SOL     OW76343   0.278   3.169   1.076
24779SOL    HW176344   0.281   3.250   1.126
24779SOL    HW276345   0.247   3.195   0.989
24780SOL     OW76346   7.646   2.285   2.304
24780SOL    HW176347   7.632   2.375   2.332
24780SOL    HW276348   7.741   2.278   2.292
24781SOL     OW76349   2.306   0.228   3.295
24781SOL    HW176350   2.283   0.170   3.222
24781SOL    HW276351   2.358   0.173   3.354
24782SOL     OW76352   7.245  10.791   1.916
24782SOL    HW176353   7.306  10.782   1.843
24782SOL    HW276354   7.159  10.771   1.878
24783SOL     OW76355   8.055   9.499   8.450
24783SOL    HW176356   8.039   9.410   8.481
24783SOL    HW276357   8.145   9.496   8.417
24784SOL     OW76358   8.073   6.871   8.611
24784SOL    HW176359   8.107   6.783   8.591
24784SOL    HW276360   8.114   6.928   8.546
24785SOL     OW76361   4.261   8.347   0.089
24785SOL    HW176362   4.346   8.315   0.057
24785SOL    HW276363   4.263   8.330   0.183
24786SOL     OW76364   7.244   9.342   4.348
24786SOL    HW176365   7.262   9.307   4.435
24786SOL    HW276366   7.185   9.277   4.309
24787SOL     OW76367  10.226  10.783   2.223
24787SOL    HW176368  10.264  10.765   2.137
24787SOL    HW276369  10.301  10.806   2.278
24788SOL     OW76370   5.993   0.929   8.621
24788SOL    HW176371   6.075   0.930   8.572
24788SOL    HW276372   5.927   0.957   8.557
24789SOL     OW76373   8.624   8.366   3.951
24789SOL    HW176374   8.674   8.301   3.902
24789SOL    HW276375   8.690   8.426   3.984
24790SOL     OW76376   5.914   0.311   6.632
24790SOL    HW176377   5.858   0.250   6.583
24790SOL    HW276378   6.001   0.300   6.593
24791SOL     OW76379   6.187   2.933   5.834
24791SOL    HW176380   6.126   2.993   5.791
24791SOL    HW276381   6.231   2.888   5.761
24792SOL     OW76382   2.469   7.953   4.092
24792SOL    HW176383   2.455   8.047   4.084
24792SOL    HW276384   2.474   7.922   4.001
24793SOL     OW76385   9.680   4.952  10.645
24793SOL    HW176386   9.600   4.903  10.664
24793SOL    HW276387   9.706   4.990  10.729
24794SOL     OW76388   4.287   7.423  10.560
24794SOL    HW176389   4.220   7.356  10.544
24794SOL    HW276390   4.330   7.395  10.641
24795SOL     OW76391   7.486   8.113   7.322
24795SOL    HW176392   7.417   8.062   7.365
24795SOL    HW276393   7.548   8.047   7.290
24796SOL     OW76394   6.164  10.969   1.140
24796SOL    HW176395   6.105  10.958   1.214
24796SOL    HW276396   6.108  10.997   1.068
24797SOL     OW76397   6.402   6.928   6.249
24797SOL    HW176398   6.465   6.861   6.221
24797SOL    HW276399   6.394   6.986   6.173
24798SOL     OW76400   8.658   3.543   6.052
24798SOL    HW176401   8.663   3.575   5.962
24798SOL    HW276402   8.739   3.574   6.093
24799SOL     OW76403   5.749   1.782   5.708
24799SOL    HW176404   5.704   1.852   5.755
24799SOL    HW276405   5.833   1.773   5.753
24800SOL     OW76406   8.663   3.055   9.402
24800SOL    HW176407   8.678   3.149   9.393
24800SOL    HW276408   8.568   3.045   9.397
24801SOL     OW76409   3.982   9.080   0.512
24801SOL    HW176410   3.989   9.172   0.538
24801SOL    HW276411   4.072   9.053   0.494
24802SOL     OW76412   9.231   4.854   8.159
24802SOL    HW176413   9.173   4.794   8.205
24802SOL    HW276414   9.294   4.796   8.115
24803SOL     OW76415   4.553   8.344  10.015
24803SOL    HW176416   4.555   8.294  10.096
24803SOL    HW276417   4.481   8.305   9.965
24804SOL     OW76418  10.106   0.411   0.368
24804SOL    HW176419  10.178   0.429   0.307
24804SOL    HW276420  10.028   0.406   0.312
24805SOL     OW76421   0.868   9.610   1.427
24805SOL    HW176422   0.862   9.568   1.341
24805SOL    HW276423   0.832   9.697   1.413
24806SOL     OW76424   4.396   6.907   6.108
24806SOL    HW176425   4.402   6.828   6.163
24806SOL    HW276426   4.479   6.953   6.123
24807SOL     OW76427   8.264   2.651   9.817
24807SOL    HW176428   8.355   2.674   9.798
24807SOL    HW276429   8.214   2.688   9.744
24808SOL     OW76430   0.718   3.451   6.066
24808SOL    HW176431   0.709   3.412   5.979
24808SOL    HW276432   0.719   3.545   6.050
24809SOL     OW76433   6.264   4.357   5.398
24809SOL    HW176434   6.354   4.328   5.412
24809SOL    HW276435   6.226   4.289   5.341
24810SOL     OW76436   6.137   5.561   9.054
24810SOL    HW176437   6.150   5.501   8.980
24810SOL    HW276438   6.174   5.514   9.129
24811SOL     OW76439   7.827   2.828   4.791
24811SOL    HW176440   7.746   2.788   4.822
24811SOL    HW276441   7.809   2.850   4.699
24812SOL     OW76442   1.230   4.306   4.282
24812SOL    HW176443   1.321   4.334   4.270
24812SOL    HW276444   1.237   4.214   4.308
24813SOL     OW76445   9.440   9.494   3.876
24813SOL    HW176446   9.425   9.439   3.798
24813SOL    HW276447   9.435   9.433   3.949
24814SOL     OW76448   9.176   4.381   8.784
24814SOL    HW176449   9.104   4.443   8.797
24814SOL    HW276450   9.231   4.422   8.717
24815SOL     OW76451   8.439   7.528   3.730
24815SOL    HW176452   8.534   7.518   3.730
24815SOL    HW276453   8.413   7.508   3.640
24816SOL     OW76454   7.672   2.074   2.575
24816SOL    HW176455   7.746   2.028   2.614
24816SOL    HW276456   7.681   2.058   2.481
24817SOL     OW76457   7.504   1.622   8.826
24817SOL    HW176458   7.559   1.667   8.890
24817SOL    HW276459   7.441   1.573   8.878
24818SOL     OW76460   8.219   3.336   3.888
24818SOL    HW176461   8.130   3.369   3.902
24818SOL    HW276462   8.253   3.388   3.815
24819SOL     OW76463   6.621   7.486   0.913
24819SOL    HW176464   6.653   7.540   0.985
24819SOL    HW276465   6.531   7.515   0.899
24820SOL     OW76466   5.861   6.789   2.808
24820SOL    HW176467   5.920   6.830   2.870
24820SOL    HW276468   5.820   6.718   2.857
24821SOL     OW76469   2.260   1.106  10.296
24821SOL    HW176470   2.167   1.084  10.286
24821SOL    HW276471   2.272   1.184  10.242
24822SOL     OW76472   6.368   4.229   4.642
24822SOL    HW176473   6.338   4.204   4.729
24822SOL    HW276474   6.311   4.302   4.617
24823SOL     OW76475   7.712   1.846   6.890
24823SOL    HW176476   7.636   1.879   6.937
24823SOL    HW276477   7.681   1.766   6.847
24824SOL     OW76478  10.263   1.184   5.800
24824SOL    HW176479  10.213   1.163   5.878
24824SOL    HW276480  10.217   1.139   5.729
24825SOL     OW76481   7.404   6.034   8.074
24825SOL    HW176482   7.444   5.952   8.044
24825SOL    HW276483   7.470   6.101   8.056
24826SOL     OW76484   4.373   4.119   4.328
24826SOL    HW176485   4.339   4.039   4.369
24826SOL    HW276486   4.437   4.153   4.390
24827SOL     OW76487   4.549   4.850   2.007
24827SOL    HW176488   4.605   4.802   1.946
24827SOL    HW276489   4.471   4.795   2.016
24828SOL     OW76490   5.636   1.287   0.624
24828SOL    HW176491   5.727   1.257   0.625
24828SOL    HW276492   5.611   1.291   0.716
24829SOL     OW76493   5.149   9.198   6.016
24829SOL    HW176494   5.065   9.243   6.022
24829SOL    HW276495   5.208   9.247   6.073
24830SOL     OW76496   1.550   3.468   5.183
24830SOL    HW176497   1.489   3.486   5.254
24830SOL    HW276498   1.520   3.385   5.146
24831SOL     OW76499   2.360   5.549   0.325
24831SOL    HW176500   2.345   5.455   0.339
24831SOL    HW276501   2.435   5.570   0.380
24832SOL     OW76502   9.062   3.000   2.463
24832SOL    HW176503   9.100   2.934   2.404
24832SOL    HW276504   9.070   3.082   2.415
24833SOL     OW76505   9.488   3.065   6.070
24833SOL    HW176506   9.393   3.065   6.064
24833SOL    HW276507   9.516   3.128   6.004
24834SOL     OW76508  10.792  10.285   2.631
24834SOL    HW176509  10.796  10.206   2.685
24834SOL    HW276510  10.709  10.277   2.584
24835SOL     OW76511   5.430   8.401   6.354
24835SOL    HW176512   5.350   8.445   6.382
24835SOL    HW276513   5.478   8.384   6.435
24836SOL     OW76514   9.449   2.904  10.962
24836SOL    HW176515   9.461   2.957  11.040
24836SOL    HW276516   9.469   2.963  10.889
24837SOL     OW76517   7.037   6.614   5.996
24837SOL    HW176518   7.055   6.544   5.933
24837SOL    HW276519   7.123   6.646   6.022
24838SOL     OW76520   1.457   5.602  10.474
24838SOL    HW176521   1.479   5.694  10.466
24838SOL    HW276522   1.386   5.599  10.538
24839SOL     OW76523   7.347   3.920   5.467
24839SOL    HW176524   7.440   3.908   5.447
24839SOL    HW276525   7.323   4.001   5.423
24840SOL     OW76526  10.548   5.693   5.314
24840SOL    HW176527  10.621   5.656   5.264
24840SOL    HW276528  10.499   5.616   5.344
24841SOL     OW76529   7.325   3.814   6.761
24841SOL    HW176530   7.387   3.764   6.814
24841SOL    HW276531   7.367   3.821   6.675
24842SOL     OW76532   8.057   6.688   2.956
24842SOL    HW176533   8.101   6.603   2.946
24842SOL    HW276534   8.020   6.706   2.869
24843SOL     OW76535   9.505  10.053   3.650
24843SOL    HW176536   9.538  10.048   3.739
24843SOL    HW276537   9.503  10.146   3.630
24844SOL     OW76538   0.552   5.975   7.971
24844SOL    HW176539   0.570   5.898   7.917
24844SOL    HW276540   0.536   6.045   7.908
24845SOL     OW76541   5.322   3.430   9.343
24845SOL    HW176542   5.335   3.349   9.393
24845SOL    HW276543   5.227   3.438   9.335
24846SOL     OW76544   2.727   9.020   1.189
24846SOL    HW176545   2.812   9.039   1.149
24846SOL    HW276546   2.713   8.927   1.171
24847SOL     OW76547   5.591   2.581   9.837
24847SOL    HW176548   5.615   2.663   9.795
24847SOL    HW276549   5.614   2.514   9.772
24848SOL     OW76550  10.774   0.172   6.710
24848SOL    HW176551  10.800   0.085   6.680
24848SOL    HW276552  10.847   0.202   6.764
24849SOL     OW76553   9.579   9.822  10.406
24849SOL    HW176554   9.533   9.752  10.360
24849SOL    HW276555   9.642   9.776  10.462
24850SOL     OW76556   6.092   5.283   3.712
24850SOL    HW176557   6.108   5.353   3.775
24850SOL    HW276558   6.031   5.321   3.649
24851SOL     OW76559   7.721   3.834   1.084
24851SOL    HW176560   7.662   3.860   1.013
24851SOL    HW276561   7.706   3.740   1.094
24852SOL     OW76562   7.750   8.331  10.451
24852SOL    HW176563   7.683   8.314  10.517
24852SOL    HW276564   7.824   8.276  10.477
24853SOL     OW76565   1.585   1.985  10.924
24853SOL    HW176566   1.663   2.010  10.974
24853SOL    HW276567   1.570   1.893  10.947
24854SOL     OW76568   4.396   3.649   6.388
24854SOL    HW176569   4.312   3.625   6.428
24854SOL    HW276570   4.396   3.603   6.304
24855SOL     OW76571   9.751   3.133   3.237
24855SOL    HW176572   9.796   3.189   3.173
24855SOL    HW276573   9.782   3.044   3.217
24856SOL     OW76574   0.311   5.622   7.019
24856SOL    HW176575   0.354   5.617   6.933
24856SOL    HW276576   0.277   5.533   7.033
24857SOL     OW76577   2.434   5.973   3.306
24857SOL    HW176578   2.406   6.036   3.239
24857SOL    HW276579   2.368   5.979   3.375
24858SOL     OW76580  10.745   1.941  10.351
24858SOL    HW176581  10.711   2.029  10.334
24858SOL    HW276582  10.707   1.915  10.435
24859SOL     OW76583   2.366  10.856   3.839
24859SOL    HW176584   2.388  10.785   3.898
24859SOL    HW276585   2.369  10.816   3.752
24860SOL     OW76586   9.884   3.484   6.333
24860SOL    HW176587   9.889   3.391   6.309
24860SOL    HW276588   9.869   3.484   6.427
24861SOL     OW76589  10.675   5.117   4.095
24861SOL    HW176590  10.650   5.025   4.103
24861SOL    HW276591  10.736   5.132   4.167
24862SOL     OW76592   9.723   2.350   6.610
24862SOL    HW176593   9.783   2.308   6.672
24862SOL    HW276594   9.650   2.289   6.603
24863SOL     OW76595   6.048   3.374   7.838
24863SOL    HW176596   5.978   3.343   7.895
24863SOL    HW276597   6.004   3.427   7.772
24864SOL     OW76598   1.899   1.541   3.223
24864SOL    HW176599   1.923   1.501   3.306
24864SOL    HW276600   1.974   1.596   3.200
24865SOL     OW76601   6.408   0.220   2.350
24865SOL    HW176602   6.381   0.277   2.278
24865SOL    HW276603   6.472   0.271   2.399
24866SOL     OW76604   7.300   4.360   6.028
24866SOL    HW176605   7.378   4.318   5.992
24866SOL    HW276606   7.243   4.287   6.053
24867SOL     OW76607   6.893   8.227   7.544
24867SOL    HW176608   6.973   8.173   7.545
24867SOL    HW276609   6.834   8.184   7.606
24868SOL     OW76610   2.466   8.663   7.412
24868SOL    HW176611   2.513   8.653   7.329
24868SOL    HW276612   2.535   8.674   7.477
24869SOL     OW76613   8.549  10.761  10.688
24869SOL    HW176614   8.530  10.842  10.640
24869SOL    HW276615   8.494  10.766  10.766
24870SOL     OW76616   5.848   8.133  10.413
24870SOL    HW176617   5.762   8.173  10.402
24870SOL    HW276618   5.905   8.205  10.440
24871SOL     OW76619   9.010   1.203   7.901
24871SOL    HW176620   8.996   1.261   7.826
24871SOL    HW276621   9.042   1.121   7.862
24872SOL     OW76622   7.695   4.732   9.741
24872SOL    HW176623   7.719   4.748   9.650
24872SOL    HW276624   7.663   4.816   9.773
24873SOL     OW76625   4.043   2.430   8.366
24873SOL    HW176626   3.973   2.386   8.414
24873SOL    HW276627   4.082   2.490   8.429
24874SOL     OW76628   5.240   3.084   2.804
24874SOL    HW176629   5.331   3.094   2.832
24874SOL    HW276630   5.205   3.015   2.861
24875SOL     OW76631   3.939   2.401   5.432
24875SOL    HW176632   3.906   2.311   5.424
24875SOL    HW276633   3.938   2.419   5.526
24876SOL     OW76634   6.483   2.064   0.059
24876SOL    HW176635   6.497   2.000   0.129
24876SOL    HW276636   6.388   2.065   0.047
24877SOL     OW76637  10.140   3.782   6.735
24877SOL    HW176638  10.221   3.799   6.687
24877SOL    HW276639  10.071   3.811   6.675
24878SOL     OW76640   5.385   7.848   4.592
24878SOL    HW176641   5.420   7.927   4.632
24878SOL    HW276642   5.291   7.854   4.605
24879SOL     OW76643   4.065   8.516   0.910
24879SOL    HW176644   3.991   8.566   0.944
24879SOL    HW276645   4.142   8.556   0.950
24880SOL     OW76646   8.135   0.597   0.134
24880SOL    HW176647   8.165   0.637   0.053
24880SOL    HW276648   8.081   0.523   0.106
24881SOL     OW76649   4.259   6.239   3.466
24881SOL    HW176650   4.337   6.263   3.416
24881SOL    HW276651   4.191   6.299   3.435
24882SOL     OW76652   6.337   5.593   7.792
24882SOL    HW176653   6.254   5.636   7.814
24882SOL    HW276654   6.364   5.634   7.710
24883SOL     OW76655   2.442   4.789   1.329
24883SOL    HW176656   2.507   4.826   1.389
24883SOL    HW276657   2.416   4.706   1.370
24884SOL     OW76658   9.122   6.394   6.379
24884SOL    HW176659   9.072   6.324   6.420
24884SOL    HW276660   9.104   6.384   6.285
24885SOL     OW76661   8.289   9.193  10.961
24885SOL    HW176662   8.230   9.169  11.033
24885SOL    HW276663   8.300   9.287  10.969
24886SOL     OW76664   4.780   9.309   2.163
24886SOL    HW176665   4.693   9.280   2.190
24886SOL    HW276666   4.806   9.373   2.228
24887SOL     OW76667   7.460   0.771   6.888
24887SOL    HW176668   7.380   0.790   6.937
24887SOL    HW276669   7.531   0.782   6.951
24888SOL     OW76670  10.008   7.971   6.534
24888SOL    HW176671  10.050   8.034   6.476
24888SOL    HW276672  10.065   7.967   6.611
24889SOL     OW76673   7.754  10.082   9.237
24889SOL    HW176674   7.700  10.128   9.300
24889SOL    HW276675   7.844  10.099   9.264
24890SOL     OW76676   0.521   2.865   5.860
24890SOL    HW176677   0.604   2.862   5.812
24890SOL    HW276678   0.526   2.791   5.921
24891SOL     OW76679   5.519   5.006   7.846
24891SOL    HW176680   5.474   5.088   7.825
24891SOL    HW276681   5.451   4.950   7.884
24892SOL     OW76682   8.580   2.573   9.249
24892SOL    HW176683   8.675   2.583   9.260
24892SOL    HW276684   8.546   2.565   9.338
24893SOL     OW76685   4.687   5.122   2.246
24893SOL    HW176686   4.666   5.178   2.171
24893SOL    HW276687   4.735   5.178   2.306
24894SOL     OW76688   3.788   8.580   2.636
24894SOL    HW176689   3.866   8.625   2.669
24894SOL    HW276690   3.740   8.646   2.587
24895SOL     OW76691   6.035   3.285   4.704
24895SOL    HW176692   6.058   3.228   4.630
24895SOL    HW276693   6.031   3.373   4.666
24896SOL     OW76694   2.473   4.887   5.626
24896SOL    HW176695   2.470   4.797   5.659
24896SOL    HW276696   2.502   4.939   5.701
24897SOL     OW76697   6.785   0.471   2.173
24897SOL    HW176698   6.833   0.388   2.176
24897SOL    HW276699   6.837   0.531   2.226
24898SOL     OW76700   5.533   4.033   9.663
24898SOL    HW176701   5.503   3.974   9.732
24898SOL    HW276702   5.624   4.007   9.647
24899SOL     OW76703   6.139   4.866   5.670
24899SOL    HW176704   6.057   4.826   5.699
24899SOL    HW276705   6.167   4.919   5.744
24900SOL     OW76706   6.146   5.783   1.374
24900SOL    HW176707   6.184   5.795   1.287
24900SOL    HW276708   6.212   5.732   1.422
24901SOL     OW76709   7.276   8.676   6.603
24901SOL    HW176710   7.243   8.704   6.517
24901SOL    HW276711   7.370   8.694   6.599
24902SOL     OW76712   5.433  10.432   9.794
24902SOL    HW176713   5.484  10.387   9.862
24902SOL    HW276714   5.446  10.379   9.715
24903SOL     OW76715   3.026   3.638   5.708
24903SOL    HW176716   3.050   3.585   5.631
24903SOL    HW276717   2.945   3.599   5.739
24904SOL     OW76718   2.805   5.391   0.168
24904SOL    HW176719   2.888   5.381   0.122
24904SOL    HW276720   2.805   5.319   0.232
24905SOL     OW76721   1.020   1.883   6.880
24905SOL    HW176722   0.930   1.913   6.890
24905SOL    HW276723   1.044   1.908   6.790
24906SOL     OW76724   8.951   1.084   3.169
24906SOL    HW176725   8.960   0.994   3.135
24906SOL    HW276726   9.001   1.138   3.107
24907SOL     OW76727   7.511   7.789   7.456
24907SOL    HW176728   7.428   7.811   7.414
24907SOL    HW276729   7.559   7.740   7.389
24908SOL     OW76730   6.859   4.415   5.588
24908SOL    HW176731   6.842   4.327   5.553
24908SOL    HW276732   6.942   4.406   5.635
24909SOL     OW76733   4.908   8.074   2.417
24909SOL    HW176734   4.885   8.113   2.501
24909SOL    HW276735   4.836   8.097   2.359
24910SOL     OW76736   6.078   4.518   5.512
24910SOL    HW176737   6.059   4.589   5.451
24910SOL    HW276738   6.139   4.461   5.464
24911SOL     OW76739   8.553   3.917   8.993
24911SOL    HW176740   8.631   3.885   9.039
24911SOL    HW276741   8.583   3.995   8.946
24912SOL     OW76742   7.781   2.393   0.245
24912SOL    HW176743   7.825   2.411   0.328
24912SOL    HW276744   7.825   2.315   0.211
24913SOL     OW76745   4.349   0.822   6.709
24913SOL    HW176746   4.265   0.777   6.717
24913SOL    HW276747   4.369   0.853   6.797
24914SOL     OW76748   9.958   2.757   8.763
24914SOL    HW176749   9.963   2.716   8.676
24914SOL    HW276750   9.952   2.850   8.744
24915SOL     OW76751   9.239   4.617   5.647
24915SOL    HW176752   9.247   4.596   5.740
24915SOL    HW276753   9.148   4.599   5.626
24916SOL     OW76754   6.249   9.276   8.071
24916SOL    HW176755   6.198   9.236   8.142
24916SOL    HW276756   6.207   9.244   7.991
24917SOL     OW76757  10.210   3.144   0.820
24917SOL    HW176758  10.174   3.093   0.747
24917SOL    HW276759  10.285   3.092   0.850
24918SOL     OW76760   6.299   5.518   9.316
24918SOL    HW176761   6.362   5.523   9.388
24918SOL    HW276762   6.339   5.458   9.252
24919SOL     OW76763   8.375   4.625   7.870
24919SOL    HW176764   8.290   4.666   7.858
24919SOL    HW276765   8.358   4.531   7.859
24920SOL     OW76766   4.043   4.518   5.304
24920SOL    HW176767   3.950   4.521   5.325
24920SOL    HW276768   4.049   4.556   5.216
24921SOL     OW76769   4.957   2.566   4.996
24921SOL    HW176770   4.920   2.654   4.987
24921SOL    HW276771   4.921   2.517   4.922
24922SOL     OW76772   5.884   6.623   9.238
24922SOL    HW176773   5.789   6.628   9.229
24922SOL    HW276774   5.901   6.636   9.331
24923SOL     OW76775  10.358   6.109   0.741
24923SOL    HW176776  10.450   6.122   0.765
24923SOL    HW276777  10.308   6.149   0.811
24924SOL     OW76778   7.117   4.574   7.911
24924SOL    HW176779   7.194   4.615   7.951
24924SOL    HW276780   7.137   4.480   7.911
24925SOL     OW76781   6.507   4.986   5.214
24925SOL    HW176782   6.528   4.917   5.277
24925SOL    HW276783   6.412   4.992   5.216
24926SOL     OW76784   3.844  10.697   5.561
24926SOL    HW176785   3.779  10.762   5.588
24926SOL    HW276786   3.838  10.696   5.465
24927SOL     OW76787   9.676   2.069   8.770
24927SOL    HW176788   9.765   2.035   8.782
24927SOL    HW276789   9.686   2.164   8.771
24928SOL     OW76790   2.330   5.978   1.786
24928SOL    HW176791   2.421   5.974   1.816
24928SOL    HW276792   2.309   5.887   1.762
24929SOL     OW76793   7.339   6.936   7.657
24929SOL    HW176794   7.415   6.975   7.700
24929SOL    HW276795   7.359   6.842   7.653
24930SOL     OW76796   6.919   4.115   6.073
24930SOL    HW176797   6.880   4.067   6.146
24930SOL    HW276798   6.845   4.134   6.015
24931SOL     OW76799   1.235   6.848   7.475
24931SOL    HW176800   1.321   6.815   7.449
24931SOL    HW276801   1.254   6.921   7.534
24932SOL     OW76802   0.179   0.316   6.104
24932SOL    HW176803   0.153   0.286   6.017
24932SOL    HW276804   0.232   0.394   6.087
24933SOL     OW76805   6.367   5.662   6.861
24933SOL    HW176806   6.324   5.630   6.940
24933SOL    HW276807   6.297   5.704   6.811
24934SOL     OW76808   8.152   6.123   4.286
24934SOL    HW176809   8.120   6.153   4.371
24934SOL    HW276810   8.099   6.045   4.266
24935SOL     OW76811   3.684   1.636   9.686
24935SOL    HW176812   3.779   1.632   9.696
24935SOL    HW276813   3.664   1.729   9.679
24936SOL     OW76814   1.420   3.551   3.581
24936SOL    HW176815   1.337   3.517   3.615
24936SOL    HW276816   1.414   3.538   3.486
24937SOL     OW76817   3.585  10.370   3.388
24937SOL    HW176818   3.607  10.400   3.476
24937SOL    HW276819   3.627  10.284   3.381
24938SOL     OW76820   6.297   1.967   8.944
24938SOL    HW176821   6.292   1.939   9.035
24938SOL    HW276822   6.209   1.999   8.924
24939SOL     OW76823   2.654   1.617   4.176
24939SOL    HW176824   2.734   1.582   4.136
24939SOL    HW276825   2.584   1.561   4.140
24940SOL     OW76826   7.595   5.963   5.928
24940SOL    HW176827   7.510   5.919   5.931
24940SOL    HW276828   7.630   5.940   5.841
24941SOL     OW76829   6.696   9.033   4.223
24941SOL    HW176830   6.770   8.989   4.264
24941SOL    HW276831   6.621   9.007   4.275
24942SOL     OW76832   0.443   0.060   8.613
24942SOL    HW176833   0.355   0.090   8.593
24942SOL    HW276834   0.459   0.090   8.702
24943SOL     OW76835   7.687   2.279   7.875
24943SOL    HW176836   7.733   2.356   7.908
24943SOL    HW276837   7.607   2.314   7.835
24944SOL     OW76838   4.135   2.572   8.130
24944SOL    HW176839   4.227   2.595   8.144
24944SOL    HW276840   4.109   2.526   8.210
24945SOL     OW76841  10.681   1.614   4.366
24945SOL    HW176842  10.682   1.531   4.414
24945SOL    HW276843  10.611   1.665   4.406
24946SOL     OW76844   6.346   2.955   9.220
24946SOL    HW176845   6.417   2.908   9.175
24946SOL    HW276846   6.271   2.947   9.160
24947SOL     OW76847   3.045   3.823   8.120
24947SOL    HW176848   3.082   3.757   8.179
24947SOL    HW276849   2.979   3.775   8.069
24948SOL     OW76850   6.432   6.973   6.499
24948SOL    HW176851   6.432   6.966   6.403
24948SOL    HW276852   6.515   6.932   6.526
24949SOL     OW76853   6.508   0.494   0.354
24949SOL    HW176854   6.559   0.552   0.410
24949SOL    HW276855   6.495   0.544   0.273
24950SOL     OW76856   7.304   7.354  10.162
24950SOL    HW176857   7.300   7.281  10.099
24950SOL    HW276858   7.332   7.429  10.109
24951SOL     OW76859   7.568   0.170  10.660
24951SOL    HW176860   7.613   0.108  10.718
24951SOL    HW276861   7.636   0.199  10.599
24952SOL     OW76862   9.620  10.774   5.945
24952SOL    HW176863   9.690  10.820   5.899
24952SOL    HW276864   9.633  10.682   5.922
24953SOL     OW76865   7.254   5.295  10.466
24953SOL    HW176866   7.189   5.296  10.396
24953SOL    HW276867   7.242   5.378  10.511
24954SOL     OW76868   0.561   4.538  11.024
24954SOL    HW176869   0.536   4.453  11.060
24954SOL    HW276870   0.620   4.517  10.951
24955SOL     OW76871   8.689   3.663   0.939
24955SOL    HW176872   8.689   3.567   0.939
24955SOL    HW276873   8.699   3.687   1.031
24956SOL     OW76874   7.652   2.257   6.258
24956SOL    HW176875   7.651   2.267   6.353
24956SOL    HW276876   7.742   2.232   6.238
24957SOL     OW76877   8.229   4.108  11.094
24957SOL    HW176878   8.178   4.059  11.029
24957SOL    HW276879   8.219   4.058  11.175
24958SOL     OW76880  10.765   4.379   4.809
24958SOL    HW176881  10.771   4.457   4.754
24958SOL    HW276882  10.779   4.306   4.748
24959SOL     OW76883   9.179   3.666  10.093
24959SOL    HW176884   9.153   3.741  10.039
24959SOL    HW276885   9.177   3.592  10.032
24960SOL     OW76886   8.632   5.226   5.771
24960SOL    HW176887   8.688   5.233   5.693
24960SOL    HW276888   8.691   5.244   5.844
24961SOL     OW76889   5.532   8.376   6.605
24961SOL    HW176890   5.481   8.420   6.672
24961SOL    HW276891   5.521   8.282   6.623
24962SOL     OW76892   9.369  10.967   8.575
24962SOL    HW176893   9.431  10.929   8.512
24962SOL    HW276894   9.288  10.978   8.525
24963SOL     OW76895   5.488   4.362   4.219
24963SOL    HW176896   5.495   4.404   4.304
24963SOL    HW276897   5.486   4.268   4.238
24964SOL     OW76898   0.972   3.590   1.158
24964SOL    HW176899   0.951   3.550   1.242
24964SOL    HW276900   0.892   3.580   1.106
24965SOL     OW76901  11.091   4.579   9.545
24965SOL    HW176902  11.083   4.674   9.546
24965SOL    HW276903  11.056   4.553   9.460
24966SOL     OW76904   8.738  10.662   7.034
24966SOL    HW176905   8.684  10.701   7.102
24966SOL    HW276906   8.824  10.702   7.046
24967SOL     OW76907   5.312   7.352  10.975
24967SOL    HW176908   5.389   7.313  11.016
24967SOL    HW276909   5.240   7.328  11.032
24968SOL     OW76910   7.555   8.517   8.527
24968SOL    HW176911   7.638   8.475   8.501
24968SOL    HW276912   7.492   8.486   8.461
24969SOL     OW76913   5.674   0.147  10.041
24969SOL    HW176914   5.755   0.147  10.092
24969SOL    HW276915   5.604   0.147  10.106
24970SOL     OW76916   7.657   6.922   7.866
24970SOL    HW176917   7.737   6.941   7.915
24970SOL    HW276918   7.636   6.831   7.889
24971SOL     OW76919   9.453  10.415   7.084
24971SOL    HW176920   9.410  10.373   7.158
24971SOL    HW276921   9.383  10.461   7.038
24972SOL     OW76922   5.461  10.818   0.897
24972SOL    HW176923   5.466  10.730   0.859
24972SOL    HW276924   5.394  10.811   0.965
24973SOL     OW76925   1.911   5.863   2.850
24973SOL    HW176926   1.899   5.861   2.945
24973SOL    HW276927   1.822   5.868   2.815
24974SOL     OW76928   8.157   4.442   8.160
24974SOL    HW176929   8.091   4.377   8.136
24974SOL    HW276930   8.109   4.524   8.168
24975SOL     OW76931   3.027   0.006   6.358
24975SOL    HW176932   3.019  -0.087   6.380
24975SOL    HW276933   3.083   0.042   6.426
24976SOL     OW76934   6.123   3.936   7.453
24976SOL    HW176935   6.131   3.981   7.369
24976SOL    HW276936   6.175   3.988   7.514
24977SOL     OW76937   4.092   9.123   9.020
24977SOL    HW176938   4.001   9.146   9.036
24977SOL    HW276939   4.090   9.029   9.002
24978SOL     OW76940   9.937   6.485   0.591
24978SOL    HW176941   9.897   6.562   0.550
24978SOL    HW276942   9.991   6.447   0.521
24979SOL     OW76943   0.287   0.445   7.443
24979SOL    HW176944   0.371   0.399   7.446
24979SOL    HW276945   0.231   0.397   7.504
24980SOL     OW76946   5.363   3.165   7.219
24980SOL    HW176947   5.358   3.116   7.301
24980SOL    HW276948   5.275   3.201   7.207
24981SOL     OW76949   9.311   3.840   7.984
24981SOL    HW176950   9.289   3.927   7.952
24981SOL    HW276951   9.406   3.834   7.973
24982SOL     OW76952   9.482   3.280   7.348
24982SOL    HW176953   9.405   3.282   7.291
24982SOL    HW276954   9.547   3.334   7.303
24983SOL     OW76955   8.384   1.360   7.024
24983SOL    HW176956   8.378   1.449   7.058
24983SOL    HW276957   8.302   1.346   6.977
24984SOL     OW76958   3.114   3.897   5.576
24984SOL    HW176959   3.052   3.949   5.626
24984SOL    HW276960   3.152   3.836   5.639
24985SOL     OW76961   2.004   6.598   3.276
24985SOL    HW176962   1.947   6.630   3.206
24985SOL    HW276963   1.962   6.517   3.305
24986SOL     OW76964   5.305   1.544   5.074
24986SOL    HW176965   5.388   1.550   5.122
24986SOL    HW276966   5.314   1.464   5.021
24987SOL     OW76967   5.737   3.085   6.048
24987SOL    HW176968   5.784   3.150   6.099
24987SOL    HW276969   5.655   3.128   6.024
24988SOL     OW76970   5.376   1.823   7.157
24988SOL    HW176971   5.289   1.790   7.135
24988SOL    HW276972   5.400   1.878   7.082
24989SOL     OW76973   7.668   6.836   4.989
24989SOL    HW176974   7.717   6.890   5.050
24989SOL    HW276975   7.694   6.868   4.902
24990SOL     OW76976  10.550   7.793   5.434
24990SOL    HW176977  10.538   7.813   5.527
24990SOL    HW276978  10.527   7.700   5.426
24991SOL     OW76979   8.420   6.649   2.908
24991SOL    HW176980   8.498   6.686   2.866
24991SOL    HW276981   8.418   6.688   2.995
24992SOL     OW76982   9.032   0.404   2.470
24992SOL    HW176983   9.076   0.440   2.547
24992SOL    HW276984   8.953   0.362   2.504
24993SOL     OW76985  10.294   3.062   9.260
24993SOL    HW176986  10.320   3.139   9.310
24993SOL    HW276987  10.324   3.080   9.171
24994SOL     OW76988   1.883   2.945   3.227
24994SOL    HW176989   1.907   3.031   3.192
24994SOL    HW276990   1.947   2.928   3.296
24995SOL     OW76991   9.544   6.128   2.268
24995SOL    HW176992   9.628   6.083   2.261
24995SOL    HW276993   9.527   6.133   2.362
24996SOL     OW76994   5.735   5.420   8.033
24996SOL    HW176995   5.797   5.366   7.983
24996SOL    HW276996   5.699   5.481   7.969
24997SOL     OW76997  10.680   4.695   7.730
24997SOL    HW176998  10.759   4.697   7.784
24997SOL    HW276999  10.625   4.764   7.765
24998SOL     OW77000   9.840   3.482   8.253
24998SOL    HW177001   9.853   3.504   8.160
24998SOL    HW277002   9.795   3.397   8.251
24999SOL     OW77003   9.880   8.676   4.275
24999SOL    HW177004   9.941   8.604   4.260
24999SOL    HW277005   9.935   8.754   4.279
25000SOL     OW77006   5.191   1.083   5.165
25000SOL    HW177007   5.238   1.060   5.085
25000SOL    HW277008   5.185   1.000   5.213
25001SOL     OW77009   7.764  11.013   7.974
25001SOL    HW177010   7.824  10.973   7.911
25001SOL    HW277011   7.779  11.107   7.965
25002SOL     OW77012  10.734   0.092   8.503
25002SOL    HW177013  10.652   0.045   8.485
25002SOL    HW277014  10.778   0.038   8.569
25003SOL     OW77015   8.716   6.694   0.674
25003SOL    HW177016   8.772   6.643   0.615
25003SOL    HW277017   8.767   6.702   0.755
25004SOL     OW77018   7.559   3.289   6.690
25004SOL    HW177019   7.613   3.225   6.736
25004SOL    HW277020   7.565   3.264   6.598
25005SOL     OW77021   5.928   3.547   8.255
25005SOL    HW177022   5.862   3.509   8.197
25005SOL    HW277023   6.001   3.485   8.252
25006SOL     OW77024   6.265   7.994   6.006
25006SOL    HW177025   6.251   8.059   6.074
25006SOL    HW277026   6.360   7.979   6.006
25007SOL     OW77027   7.104   3.000  11.013
25007SOL    HW177028   7.162   2.925  11.027
25007SOL    HW277029   7.016   2.962  11.012
25008SOL     OW77030   7.285   2.228   5.651
25008SOL    HW177031   7.351   2.252   5.716
25008SOL    HW277032   7.333   2.225   5.568
25009SOL     OW77033   6.921   2.599   6.531
25009SOL    HW177034   6.840   2.599   6.480
25009SOL    HW277035   6.921   2.683   6.575
25010SOL     OW77036  10.428   2.007   9.602
25010SOL    HW177037  10.455   2.098   9.593
25010SOL    HW277038  10.400   1.999   9.693
25011SOL     OW77039   6.981   4.785   5.288
25011SOL    HW177040   7.068   4.821   5.270
25011SOL    HW277041   6.991   4.738   5.371
25012SOL     OW77042   4.677   8.271   7.786
25012SOL    HW177043   4.722   8.200   7.833
25012SOL    HW277044   4.730   8.285   7.707
25013SOL     OW77045   0.505   4.333   3.957
25013SOL    HW177046   0.447   4.406   3.977
25013SOL    HW277047   0.511   4.283   4.038
25014SOL     OW77048  10.837   2.592   4.063
25014SOL    HW177049  10.813   2.666   4.008
25014SOL    HW277050  10.854   2.630   4.149
25015SOL     OW77051   7.156   7.953   6.778
25015SOL    HW177052   7.235   7.935   6.726
25015SOL    HW277053   7.189   7.994   6.858
25016SOL     OW77054   6.152   3.092   5.362
25016SOL    HW177055   6.221   3.145   5.401
25016SOL    HW277056   6.093   3.155   5.321
25017SOL     OW77057   6.516   3.008   8.121
25017SOL    HW177058   6.430   2.991   8.082
25017SOL    HW277059   6.574   2.944   8.079
25018SOL     OW77060   9.442   6.040   2.523
25018SOL    HW177061   9.417   6.026   2.614
25018SOL    HW277062   9.362   6.025   2.473
25019SOL     OW77063   7.711   5.350   8.784
25019SOL    HW177064   7.805   5.368   8.782
25019SOL    HW277065   7.670   5.435   8.800
25020SOL     OW77066   5.402   1.369   6.664
25020SOL    HW177067   5.321   1.325   6.690
25020SOL    HW277068   5.435   1.316   6.591
25021SOL     OW77069   6.801   2.036   6.230
25021SOL    HW177070   6.793   2.012   6.137
25021SOL    HW277071   6.889   2.074   6.237
25022SOL     OW77072   4.771   2.391  10.132
25022SOL    HW177073   4.857   2.349  10.132
25022SOL    HW277074   4.778   2.460  10.198
25023SOL     OW77075   2.838   9.704  10.741
25023SOL    HW177076   2.748   9.719  10.771
25023SOL    HW277077   2.841   9.611  10.719
25024SOL     OW77078   4.693   0.259   5.587
25024SOL    HW177079   4.614   0.306   5.611
25024SOL    HW277080   4.760   0.290   5.647
25025SOL     OW77081   8.843   7.575   7.997
25025SOL    HW177082   8.928   7.561   8.039
25025SOL    HW277083   8.804   7.648   8.045
25026SOL     OW77084   4.804   5.234   7.841
25026SOL    HW177085   4.886   5.185   7.835
25026SOL    HW277086   4.744   5.174   7.886
25027SOL     OW77087   4.956   3.693   4.930
25027SOL    HW177088   4.912   3.777   4.942
25027SOL    HW277089   5.031   3.696   4.989
25028SOL     OW77090   6.687   8.906   0.260
25028SOL    HW177091   6.647   8.891   0.174
25028SOL    HW277092   6.673   8.824   0.307
25029SOL     OW77093   9.312   0.401   6.031
25029SOL    HW177094   9.358   0.452   6.097
25029SOL    HW277095   9.373   0.330   6.008
25030SOL     OW77096   5.178   1.573   9.460
25030SOL    HW177097   5.173   1.507   9.390
25030SOL    HW277098   5.209   1.524   9.536
25031SOL     OW77099   6.943   1.902   8.943
25031SOL    HW177100   7.016   1.849   8.975
25031SOL    HW277101   6.886   1.913   9.019
25032SOL     OW77102   7.253   9.997   9.105
25032SOL    HW177103   7.220   9.954   9.184
25032SOL    HW277104   7.338   9.955   9.088
25033SOL     OW77105   9.412   2.020   7.790
25033SOL    HW177106   9.322   1.989   7.778
25033SOL    HW277107   9.407   2.081   7.863
25034SOL     OW77108   7.562   0.899   8.191
25034SOL    HW177109   7.549   0.916   8.284
25034SOL    HW277110   7.501   0.828   8.170
25035SOL     OW77111   1.476  11.011   1.471
25035SOL    HW177112   1.514  10.996   1.557
25035SOL    HW277113   1.417  10.937   1.457
25036SOL     OW77114   8.606  10.267   7.518
25036SOL    HW177115   8.581  10.279   7.609
25036SOL    HW277116   8.538  10.312   7.467
25037SOL     OW77117   2.459   1.887   3.205
25037SOL    HW177118   2.449   1.792   3.193
25037SOL    HW277119   2.412   1.926   3.131
25038SOL     OW77120   8.179  10.357   8.256
25038SOL    HW177121   8.231  10.400   8.323
25038SOL    HW277122   8.231  10.280   8.231
25039SOL     OW77123   4.295  10.155   5.320
25039SOL    HW177124   4.359  10.164   5.390
25039SOL    HW277125   4.260  10.066   5.331
25040SOL     OW77126  10.796   7.896   2.748
25040SOL    HW177127  10.755   7.963   2.802
25040SOL    HW277128  10.791   7.816   2.800
25041SOL     OW77129   5.587   8.280   0.885
25041SOL    HW177130   5.639   8.293   0.805
25041SOL    HW277131   5.498   8.267   0.853
25042SOL     OW77132   5.064   0.829   3.780
25042SOL    HW177133   5.142   0.781   3.809
25042SOL    HW277134   5.017   0.850   3.860
25043SOL     OW77135   9.206   7.914   6.290
25043SOL    HW177136   9.237   8.004   6.279
25043SOL    HW277137   9.228   7.891   6.380
25044SOL     OW77138   3.675   1.750   1.982
25044SOL    HW177139   3.652   1.840   2.005
25044SOL    HW277140   3.604   1.721   1.925
25045SOL     OW77141   3.010   9.968   4.232
25045SOL    HW177142   3.028  10.047   4.181
25045SOL    HW277143   2.916   9.971   4.248
25046SOL     OW77144   6.589   4.510   5.570
25046SOL    HW177145   6.677   4.474   5.580
25046SOL    HW277146   6.535   4.435   5.545
25047SOL     OW77147   4.548  10.489   1.621
25047SOL    HW177148   4.525  10.539   1.542
25047SOL    HW277149   4.595  10.552   1.676
25048SOL     OW77150   7.567   8.250   8.766
25048SOL    HW177151   7.488   8.220   8.720
25048SOL    HW277152   7.545   8.337   8.798
25049SOL     OW77153   8.717   4.107   5.904
25049SOL    HW177154   8.809   4.114   5.931
25049SOL    HW277155   8.704   4.178   5.841
25050SOL     OW77156  10.094   9.470   9.554
25050SOL    HW177157  10.043   9.531   9.606
25050SOL    HW277158  10.073   9.492   9.463
25051SOL     OW77159   7.909   6.500  11.066
25051SOL    HW177160   7.841   6.514  11.132
25051SOL    HW277161   7.891   6.412  11.032
25052SOL     OW77162   6.724   5.579   9.028
25052SOL    HW177163   6.694   5.610   8.942
25052SOL    HW277164   6.774   5.652   9.064
25053SOL     OW77165   8.167   7.943   8.872
25053SOL    HW177166   8.114   7.872   8.908
25053SOL    HW277167   8.255   7.905   8.865
25054SOL     OW77168   7.520   6.213   6.678
25054SOL    HW177169   7.576   6.148   6.720
25054SOL    HW277170   7.432   6.176   6.684
25055SOL     OW77171   4.615   1.514   3.769
25055SOL    HW177172   4.529   1.538   3.804
25055SOL    HW277173   4.647   1.593   3.727
25056SOL     OW77174   8.806   7.555   0.214
25056SOL    HW177175   8.748   7.511   0.151
25056SOL    HW277176   8.788   7.648   0.203
25057SOL     OW77177   1.900   6.121   9.070
25057SOL    HW177178   1.917   6.037   9.112
25057SOL    HW277179   1.825   6.104   9.012
25058SOL     OW77180   7.940   9.028   3.309
25058SOL    HW177181   7.845   9.016   3.307
25058SOL    HW277182   7.975   8.940   3.323
25059SOL     OW77183   9.576  10.407   6.738
25059SOL    HW177184   9.667  10.379   6.745
25059SOL    HW277185   9.528  10.349   6.797
25060SOL     OW77186   1.673   3.373   1.145
25060SOL    HW177187   1.620   3.379   1.065
25060SOL    HW277188   1.611   3.347   1.213
25061SOL     OW77189   5.068   4.270   0.201
25061SOL    HW177190   5.017   4.204   0.153
25061SOL    HW277191   5.003   4.319   0.251
25062SOL     OW77192   4.875   3.689   7.419
25062SOL    HW177193   4.914   3.729   7.497
25062SOL    HW277194   4.950   3.669   7.362
25063SOL     OW77195   0.635   3.778   6.588
25063SOL    HW177196   0.628   3.748   6.497
25063SOL    HW277197   0.612   3.870   6.585
25064SOL     OW77198   3.808  10.953   1.332
25064SOL    HW177199   3.724  10.908   1.341
25064SOL    HW277200   3.873  10.887   1.355
25065SOL     OW77201   7.767   5.885   7.872
25065SOL    HW177202   7.792   5.861   7.961
25065SOL    HW277203   7.828   5.955   7.848
25066SOL     OW77204   3.659   6.374  10.602
25066SOL    HW177205   3.677   6.438  10.533
25066SOL    HW277206   3.583   6.325  10.570
25067SOL     OW77207   1.760   3.979   8.101
25067SOL    HW177208   1.808   4.024   8.170
25067SOL    HW277209   1.773   3.886   8.120
25068SOL     OW77210   9.253   5.651   4.274
25068SOL    HW177211   9.221   5.652   4.184
25068SOL    HW277212   9.265   5.558   4.294
25069SOL     OW77213   5.493   5.853   3.184
25069SOL    HW177214   5.581   5.839   3.218
25069SOL    HW277215   5.456   5.921   3.239
25070SOL     OW77216   2.069   0.679   8.189
25070SOL    HW177217   2.161   0.700   8.203
25070SOL    HW277218   2.048   0.720   8.105
25071SOL     OW77219  10.409   6.558   7.916
25071SOL    HW177220  10.499   6.545   7.945
25071SOL    HW277221  10.380   6.471   7.888
25072SOL     OW77222   7.169   2.880   0.779
25072SOL    HW177223   7.100   2.872   0.713
25072SOL    HW277224   7.243   2.830   0.742
25073SOL     OW77225   8.287   0.407   3.413
25073SOL    HW177226   8.275   0.316   3.441
25073SOL    HW277227   8.217   0.455   3.456
25074SOL     OW77228   9.791   7.118   5.688
25074SOL    HW177229   9.873   7.070   5.679
25074SOL    HW277230   9.776   7.122   5.782
25075SOL     OW77231   8.501   3.549   9.013
25075SOL    HW177232   8.497   3.617   9.080
25075SOL    HW277233   8.587   3.559   8.973
25076SOL     OW77234   8.522   9.095   7.683
25076SOL    HW177235   8.616   9.084   7.696
25076SOL    HW277236   8.509   9.077   7.590
25077SOL     OW77237   3.372   7.819   2.334
25077SOL    HW177238   3.421   7.840   2.413
25077SOL    HW277239   3.438   7.786   2.273
25078SOL     OW77240   0.703   7.509   1.827
25078SOL    HW177241   0.671   7.440   1.885
25078SOL    HW277242   0.696   7.471   1.739
25079SOL     OW77243   0.600   5.643   0.424
25079SOL    HW177244   0.563   5.579   0.363
25079SOL    HW277245   0.636   5.711   0.367
25080SOL     OW77246   3.628   8.313   2.268
25080SOL    HW177247   3.606   8.381   2.204
25080SOL    HW277248   3.713   8.340   2.304
25081SOL     OW77249  10.026   1.990   6.853
25081SOL    HW177250  10.108   1.980   6.805
25081SOL    HW277251  10.051   2.035   6.933
25082SOL     OW77252   7.668   0.050   5.991
25082SOL    HW177253   7.722   0.107   6.046
25082SOL    HW277254   7.683  -0.038   6.026
25083SOL     OW77255   3.812   9.510   7.821
25083SOL    HW177256   3.744   9.575   7.806
25083SOL    HW277257   3.765   9.430   7.844
25084SOL     OW77258   3.449   4.567   7.719
25084SOL    HW177259   3.357   4.552   7.698
25084SOL    HW277260   3.447   4.625   7.794
25085SOL     OW77261   6.868   5.142  10.242
25085SOL    HW177262   6.946   5.183  10.205
25085SOL    HW277263   6.875   5.156  10.336
25086SOL     OW77264   0.229   5.771  10.289
25086SOL    HW177265   0.168   5.790  10.217
25086SOL    HW277266   0.315   5.766  10.247
25087SOL     OW77267   9.685   5.565   8.750
25087SOL    HW177268   9.606   5.538   8.796
25087SOL    HW277269   9.657   5.577   8.659
25088SOL     OW77270   8.665   4.249   2.121
25088SOL    HW177271   8.739   4.278   2.174
25088SOL    HW277272   8.604   4.210   2.183
25089SOL     OW77273   9.820   2.095   6.065
25089SOL    HW177274   9.800   2.163   6.129
25089SOL    HW277275   9.803   2.013   6.111
25090SOL     OW77276   2.224   2.002   7.666
25090SOL    HW177277   2.209   1.978   7.574
25090SOL    HW277278   2.158   2.069   7.685
25091SOL     OW77279   1.175   5.512   9.937
25091SOL    HW177280   1.208   5.598   9.913
25091SOL    HW277281   1.093   5.503   9.888
25092SOL     OW77282   9.489   6.392   8.188
25092SOL    HW177283   9.551   6.416   8.119
25092SOL    HW277284   9.517   6.305   8.216
25093SOL     OW77285   7.832   6.471   8.110
25093SOL    HW177286   7.915   6.463   8.063
25093SOL    HW277287   7.839   6.409   8.182
25094SOL     OW77288   4.698   4.708   0.633
25094SOL    HW177289   4.685   4.777   0.568
25094SOL    HW277290   4.665   4.628   0.591
25095SOL     OW77291   9.319  10.453   0.770
25095SOL    HW177292   9.311  10.451   0.674
25095SOL    HW277293   9.396  10.398   0.789
25096SOL     OW77294   1.868   1.546  10.224
25096SOL    HW177295   1.889   1.529  10.316
25096SOL    HW277296   1.917   1.625  10.202
25097SOL     OW77297   8.279   4.249   3.148
25097SOL    HW177298   8.186   4.260   3.166
25097SOL    HW277299   8.317   4.335   3.165
25098SOL     OW77300   8.249   9.818   9.139
25098SOL    HW177301   8.343   9.805   9.125
25098SOL    HW277302   8.214   9.729   9.149
25099SOL     OW77303   7.813   5.461   6.083
25099SOL    HW177304   7.726   5.420   6.082
25099SOL    HW277305   7.796   5.555   6.082
25100SOL     OW77306   7.064   6.190   8.554
25100SOL    HW177307   7.153   6.197   8.588
25100SOL    HW277308   7.023   6.273   8.578
25101SOL     OW77309   1.498  10.219   1.234
25101SOL    HW177310   1.404  10.202   1.238
25101SOL    HW277311   1.538  10.139   1.268
25102SOL     OW77312   4.613   0.065   5.804
25102SOL    HW177313   4.622  -0.016   5.854
25102SOL    HW277314   4.653   0.045   5.719
25103SOL     OW77315   4.833  10.566   6.502
25103SOL    HW177316   4.788  10.601   6.579
25103SOL    HW277317   4.868  10.482   6.530
25104SOL     OW77318   7.300   1.213   7.826
25104SOL    HW177319   7.217   1.197   7.870
25104SOL    HW277320   7.276   1.246   7.739
25105SOL     OW77321   5.223   3.682   1.107
25105SOL    HW177322   5.168   3.605   1.123
25105SOL    HW277323   5.289   3.679   1.176
25106SOL     OW77324   8.884   5.016   6.803
25106SOL    HW177325   8.865   4.948   6.868
25106SOL    HW277326   8.811   5.011   6.741
25107SOL     OW77327   8.234   3.171   7.342
25107SOL    HW177328   8.229   3.203   7.431
25107SOL    HW277329   8.263   3.080   7.351
25108SOL     OW77330   7.488   3.011   8.247
25108SOL    HW177331   7.460   3.037   8.334
25108SOL    HW277332   7.561   2.951   8.262
25109SOL     OW77333   5.674   7.519   7.512
25109SOL    HW177334   5.678   7.602   7.464
25109SOL    HW277335   5.688   7.452   7.445
25110SOL     OW77336  10.397   0.078   7.869
25110SOL    HW177337  10.484   0.064   7.907
25110SOL    HW277338  10.377  -0.005   7.825
25111SOL     OW77339   6.811   2.402   8.193
25111SOL    HW177340   6.720   2.397   8.221
25111SOL    HW277341   6.853   2.326   8.234
25112SOL     OW77342  10.705   4.875   0.582
25112SOL    HW177343  10.762   4.857   0.657
25112SOL    HW277344  10.750   4.945   0.534
25113SOL     OW77345  10.202  10.179   9.978
25113SOL    HW177346  10.183  10.093   9.940
25113SOL    HW277347  10.198  10.239   9.903
25114SOL     OW77348  10.788   9.325   6.509
25114SOL    HW177349  10.711   9.274   6.483
25114SOL    HW277350  10.767   9.358   6.596
25115SOL     OW77351   8.956   4.128   1.126
25115SOL    HW177352   8.961   4.190   1.198
25115SOL    HW277353   8.957   4.042   1.168
25116SOL     OW77354   7.876   7.090   0.049
25116SOL    HW177355   7.798   7.062   0.001
25116SOL    HW277356   7.946   7.034   0.016
25117SOL     OW77357   4.340   7.240   9.743
25117SOL    HW177358   4.302   7.293   9.673
25117SOL    HW277359   4.433   7.234   9.720
25118SOL     OW77360   9.325  10.541   7.519
25118SOL    HW177361   9.259  10.506   7.578
25118SOL    HW277362   9.354  10.622   7.561
25119SOL     OW77363   5.957   9.288   5.165
25119SOL    HW177364   5.938   9.309   5.256
25119SOL    HW277365   6.036   9.234   5.168
25120SOL     OW77366   6.526   1.804   2.783
25120SOL    HW177367   6.496   1.713   2.774
25120SOL    HW277368   6.533   1.818   2.877
25121SOL     OW77369   3.208   3.204   9.439
25121SOL    HW177370   3.221   3.135   9.504
25121SOL    HW277371   3.193   3.156   9.357
25122SOL     OW77372   1.790   6.239   7.451
25122SOL    HW177373   1.753   6.279   7.372
25122SOL    HW277374   1.857   6.179   7.418
25123SOL     OW77375  10.726   5.262  10.184
25123SOL    HW177376  10.785   5.304  10.121
25123SOL    HW277377  10.674   5.334  10.220
25124SOL     OW77378   5.561   1.890   9.877
25124SOL    HW177379   5.578   1.810   9.927
25124SOL    HW277380   5.510   1.860   9.801
25125SOL     OW77381   0.005   4.798   3.604
25125SOL    HW177382   0.028   4.855   3.677
25125SOL    HW277383   0.088   4.774   3.563
25126SOL     OW77384   9.824   5.638  10.455
25126SOL    HW177385   9.904   5.677  10.420
25126SOL    HW277386   9.788   5.704  10.513
25127SOL     OW77387   9.900   5.688   4.881
25127SOL    HW177388   9.874   5.596   4.881
25127SOL    HW277389   9.845   5.728   4.814
25128SOL     OW77390   5.608   3.951   8.540
25128SOL    HW177391   5.626   3.861   8.570
25128SOL    HW277392   5.685   4.001   8.566
25129SOL     OW77393   4.289   5.142   8.131
25129SOL    HW177394   4.332   5.192   8.062
25129SOL    HW277395   4.234   5.079   8.084
25130SOL     OW77396   7.482   7.969   4.116
25130SOL    HW177397   7.516   8.013   4.038
25130SOL    HW277398   7.559   7.954   4.171
25131SOL     OW77399   1.758   4.163   6.539
25131SOL    HW177400   1.801   4.110   6.472
25131SOL    HW277401   1.823   4.229   6.563
25132SOL     OW77402   5.817   2.117   7.009
25132SOL    HW177403   5.744   2.137   6.950
25132SOL    HW277404   5.893   2.160   6.969
25133SOL     OW77405   5.761   8.937   7.748
25133SOL    HW177406   5.829   8.918   7.682
25133SOL    HW277407   5.779   9.026   7.776
25134SOL     OW77408   4.626   3.806   2.815
25134SOL    HW177409   4.608   3.754   2.893
25134SOL    HW277410   4.721   3.803   2.806
25135SOL     OW77411   4.540   0.996   5.546
25135SOL    HW177412   4.604   0.927   5.526
25135SOL    HW277413   4.530   1.044   5.464
25136SOL     OW77414   1.458   3.235   8.346
25136SOL    HW177415   1.374   3.250   8.389
25136SOL    HW277416   1.512   3.192   8.412
25137SOL     OW77417   5.776   2.613   5.958
25137SOL    HW177418   5.853   2.660   5.926
25137SOL    HW277419   5.703   2.650   5.908
25138SOL     OW77420  10.771   8.485   8.792
25138SOL    HW177421  10.844   8.503   8.732
25138SOL    HW277422  10.718   8.564   8.790
25139SOL     OW77423   7.300   6.593   8.399
25139SOL    HW177424   7.354   6.666   8.370
25139SOL    HW277425   7.287   6.540   8.320
25140SOL     OW77426   7.116  10.756   9.197
25140SOL    HW177427   7.063  10.835   9.186
25140SOL    HW277428   7.088  10.698   9.126
25141SOL     OW77429   4.708   4.878  10.873
25141SOL    HW177430   4.686   4.789  10.901
25141SOL    HW277431   4.778   4.905  10.932
25142SOL     OW77432  10.229   5.128  10.209
25142SOL    HW177433  10.171   5.053  10.192
25142SOL    HW277434  10.187   5.202  10.165
25143SOL     OW77435   9.873   6.253   3.229
25143SOL    HW177436   9.937   6.295   3.286
25143SOL    HW277437   9.806   6.319   3.215
25144SOL     OW77438   4.410   3.357   0.873
25144SOL    HW177439   4.409   3.452   0.872
25144SOL    HW277440   4.323   3.332   0.905
25145SOL     OW77441   9.713   4.245   5.179
25145SOL    HW177442   9.779   4.276   5.117
25145SOL    HW277443   9.670   4.324   5.210
25146SOL     OW77444   3.101   1.788   8.323
25146SOL    HW177445   3.022   1.832   8.292
25146SOL    HW277446   3.166   1.858   8.331
25147SOL     OW77447   3.397   0.896   5.142
25147SOL    HW177448   3.317   0.931   5.102
25147SOL    HW277449   3.407   0.946   5.223
25148SOL     OW77450   4.232   3.072   0.125
25148SOL    HW177451   4.257   3.162   0.144
25148SOL    HW277452   4.235   3.028   0.210
25149SOL     OW77453   0.526   3.682  10.308
25149SOL    HW177454   0.562   3.631  10.380
25149SOL    HW277455   0.510   3.768  10.345
25150SOL     OW77456   7.486   1.952   7.004
25150SOL    HW177457   7.446   2.036   7.025
25150SOL    HW277458   7.504   1.911   7.089
25151SOL     OW77459   9.383   2.173   8.464
25151SOL    HW177460   9.406   2.266   8.463
25151SOL    HW277461   9.385   2.149   8.556
25152SOL     OW77462   7.799   9.275   0.958
25152SOL    HW177463   7.867   9.321   1.007
25152SOL    HW277464   7.773   9.202   1.014
25153SOL     OW77465   0.343   8.994  10.639
25153SOL    HW177466   0.303   8.958  10.559
25153SOL    HW277467   0.304   9.081  10.648
25154SOL     OW77468   6.036   7.017   5.994
25154SOL    HW177469   6.102   7.041   5.928
25154SOL    HW277470   6.082   6.957   6.053
25155SOL     OW77471   3.855   8.341   5.296
25155SOL    HW177472   3.941   8.356   5.335
25155SOL    HW277473   3.856   8.393   5.215
25156SOL     OW77474   0.059   1.194   7.899
25156SOL    HW177475   0.071   1.278   7.942
25156SOL    HW277476   0.136   1.183   7.844
25157SOL     OW77477   8.910   4.284  10.180
25157SOL    HW177478   8.994   4.288  10.134
25157SOL    HW277479   8.888   4.191  10.179
25158SOL     OW77480   8.649   0.269   6.291
25158SOL    HW177481   8.561   0.255   6.256
25158SOL    HW277482   8.660   0.364   6.292
25159SOL     OW77483   7.942   0.519   5.519
25159SOL    HW177484   7.902   0.599   5.486
25159SOL    HW277485   8.013   0.500   5.457
25160SOL     OW77486   2.680   5.557   2.776
25160SOL    HW177487   2.621   5.519   2.841
25160SOL    HW277488   2.649   5.521   2.692
25161SOL     OW77489   0.061   0.603   9.335
25161SOL    HW177490   0.058   0.654   9.416
25161SOL    HW277491   0.153   0.577   9.326
25162SOL     OW77492   6.297  10.509   1.305
25162SOL    HW177493   6.318  10.597   1.274
25162SOL    HW277494   6.299  10.455   1.226
25163SOL     OW77495   0.370   3.859   8.964
25163SOL    HW177496   0.404   3.819   8.884
25163SOL    HW277497   0.415   3.943   8.970
25164SOL     OW77498   4.888   5.300   6.150
25164SOL    HW177499   4.799   5.279   6.177
25164SOL    HW277500   4.943   5.263   6.219
25165SOL     OW77501   7.528   6.806   8.404
25165SOL    HW177502   7.539   6.766   8.490
25165SOL    HW277503   7.617   6.827   8.376
25166SOL     OW77504   6.818   4.368   3.107
25166SOL    HW177505   6.728   4.356   3.137
25166SOL    HW277506   6.859   4.423   3.173
25167SOL     OW77507   0.172   0.130   8.585
25167SOL    HW177508   0.100   0.152   8.644
25167SOL    HW277509   0.134   0.137   8.497
25168SOL     OW77510   8.358   1.025   6.367
25168SOL    HW177511   8.340   1.075   6.446
25168SOL    HW277512   8.294   0.954   6.368
25169SOL     OW77513   9.589   9.251   0.672
25169SOL    HW177514   9.629   9.170   0.638
25169SOL    HW277515   9.566   9.301   0.593
25170SOL     OW77516   9.081   7.281   6.872
25170SOL    HW177517   9.099   7.190   6.847
25170SOL    HW277518   9.041   7.274   6.958
25171SOL     OW77519   6.407   6.135   8.954
25171SOL    HW177520   6.351   6.111   9.027
25171SOL    HW277521   6.347   6.172   8.889
25172SOL     OW77522   3.783   1.299   7.000
25172SOL    HW177523   3.726   1.223   7.011
25172SOL    HW277524   3.771   1.324   6.908
25173SOL     OW77525   3.667   0.843   5.097
25173SOL    HW177526   3.661   0.773   5.032
25173SOL    HW277527   3.576   0.865   5.116
25174SOL     OW77528   8.476  10.848   8.548
25174SOL    HW177529   8.437  10.785   8.487
25174SOL    HW277530   8.430  10.930   8.530
25175SOL     OW77531   3.921   3.631   0.569
25175SOL    HW177532   4.011   3.663   0.565
25175SOL    HW277533   3.869   3.708   0.591
25176SOL     OW77534   8.960   8.753   2.160
25176SOL    HW177535   8.905   8.705   2.098
25176SOL    HW277536   9.047   8.713   2.151
25177SOL     OW77537   7.581   4.385   2.751
25177SOL    HW177538   7.629   4.431   2.682
25177SOL    HW277539   7.649   4.345   2.805
25178SOL     OW77540   1.054   9.093   0.768
25178SOL    HW177541   1.055   9.032   0.842
25178SOL    HW277542   1.087   9.175   0.804
25179SOL     OW77543   3.871   4.835   0.770
25179SOL    HW177544   3.948   4.851   0.824
25179SOL    HW277545   3.822   4.917   0.773
25180SOL     OW77546   6.837   8.078   7.762
25180SOL    HW177547   6.877   8.138   7.825
25180SOL    HW277548   6.858   7.990   7.795
25181SOL     OW77549   3.043   9.440   6.617
25181SOL    HW177550   3.027   9.420   6.524
25181SOL    HW277551   3.033   9.355   6.661
25182SOL     OW77552   5.852   5.273  11.025
25182SOL    HW177553   5.795   5.201  11.051
25182SOL    HW277554   5.826   5.346  11.081
25183SOL     OW77555   1.861   4.430   1.808
25183SOL    HW177556   1.854   4.345   1.851
25183SOL    HW277557   1.774   4.469   1.816
25184SOL     OW77558   8.130   1.566   7.680
25184SOL    HW177559   8.069   1.539   7.611
25184SOL    HW277560   8.074   1.590   7.754
25185SOL     OW77561   5.697   5.460   8.333
25185SOL    HW177562   5.655   5.546   8.337
25185SOL    HW277563   5.724   5.451   8.241
25186SOL     OW77564   4.189   7.945  11.056
25186SOL    HW177565   4.164   7.853  11.045
25186SOL    HW277566   4.112   7.994  11.028
25187SOL     OW77567   8.657   2.050   8.955
25187SOL    HW177568   8.708   2.122   8.918
25187SOL    HW277569   8.721   1.979   8.968
25188SOL     OW77570   9.248   2.247  10.270
25188SOL    HW177571   9.297   2.217  10.346
25188SOL    HW277572   9.200   2.324  10.300
25189SOL     OW77573  10.454  10.784   2.935
25189SOL    HW177574  10.362  10.784   2.908
25189SOL    HW277575  10.492  10.860   2.890
25190SOL     OW77576   9.454   4.051  10.885
25190SOL    HW177577   9.512   4.053  10.809
25190SOL    HW277578   9.417   4.139  10.889
25191SOL     OW77579   7.196   4.612   6.112
25191SOL    HW177580   7.222   4.540   6.054
25191SOL    HW277581   7.196   4.689   6.056
25192SOL     OW77582   4.889   5.297   6.525
25192SOL    HW177583   4.984   5.295   6.536
25192SOL    HW277584   4.868   5.389   6.513
25193SOL     OW77585   7.777   5.101   4.414
25193SOL    HW177586   7.873   5.101   4.418
25193SOL    HW277587   7.753   5.193   4.417
25194SOL     OW77588   2.497   3.955   0.107
25194SOL    HW177589   2.576   4.009   0.110
25194SOL    HW277590   2.426   4.016   0.088
25195SOL     OW77591   7.753   4.867   8.058
25195SOL    HW177592   7.843   4.894   8.079
25195SOL    HW277593   7.756   4.847   7.964
25196SOL     OW77594   9.334   5.753   6.517
25196SOL    HW177595   9.286   5.831   6.542
25196SOL    HW277596   9.387   5.731   6.594
25197SOL     OW77597   0.658   7.858  10.413
25197SOL    HW177598   0.681   7.822  10.499
25197SOL    HW277599   0.642   7.951  10.428
25198SOL     OW77600   2.915  10.233   9.926
25198SOL    HW177601   2.956  10.160   9.879
25198SOL    HW277602   2.854  10.271   9.863
25199SOL     OW77603   4.559   4.730   0.169
25199SOL    HW177604   4.525   4.709   0.256
25199SOL    HW277605   4.481   4.745   0.116
25200SOL     OW77606   8.343   5.303  10.031
25200SOL    HW177607   8.348   5.397  10.015
25200SOL    HW277608   8.324   5.295  10.124
25201SOL     OW77609   2.591   3.614   4.028
25201SOL    HW177610   2.567   3.523   4.008
25201SOL    HW277611   2.530   3.640   4.097
25202SOL     OW77612   8.655   4.510   8.932
25202SOL    HW177613   8.566   4.485   8.906
25202SOL    HW277614   8.669   4.466   9.016
25203SOL     OW77615   2.024   8.695   8.438
25203SOL    HW177616   1.942   8.646   8.430
25203SOL    HW277617   2.091   8.628   8.454
25204SOL     OW77618  10.889  10.425   1.287
25204SOL    HW177619  10.825  10.495   1.274
25204SOL    HW277620  10.948  10.458   1.355
25205SOL     OW77621   0.828   0.726   0.660
25205SOL    HW177622   0.920   0.717   0.634
25205SOL    HW277623   0.830   0.783   0.737
25206SOL     OW77624   2.145   1.386   1.026
25206SOL    HW177625   2.086   1.364   1.098
25206SOL    HW277626   2.089   1.386   0.948
25207SOL     OW77627   5.708   7.388   7.277
25207SOL    HW177628   5.644   7.349   7.217
25207SOL    HW277629   5.792   7.370   7.235
25208SOL     OW77630   8.507   8.269   6.865
25208SOL    HW177631   8.445   8.252   6.794
25208SOL    HW277632   8.458   8.250   6.945
25209SOL     OW77633   8.379   4.961   6.551
25209SOL    HW177634   8.405   5.053   6.558
25209SOL    HW277635   8.390   4.940   6.458
25210SOL     OW77636   5.253   8.520   9.381
25210SOL    HW177637   5.174   8.495   9.333
25210SOL    HW277638   5.230   8.600   9.427
25211SOL     OW77639   3.164   2.721   0.630
25211SOL    HW177640   3.129   2.784   0.567
25211SOL    HW277641   3.253   2.704   0.599
25212SOL     OW77642   7.185   8.190   9.405
25212SOL    HW177643   7.206   8.097   9.420
25212SOL    HW277644   7.251   8.238   9.455
25213SOL     OW77645   9.134   1.772   7.647
25213SOL    HW177646   9.126   1.860   7.682
25213SOL    HW277647   9.046   1.750   7.617
25214SOL     OW77648   2.035  10.403   9.441
25214SOL    HW177649   1.957  10.392   9.494
25214SOL    HW277650   2.086  10.470   9.486
25215SOL     OW77651   2.423   9.530   5.119
25215SOL    HW177652   2.401   9.508   5.028
25215SOL    HW277653   2.358   9.483   5.171
25216SOL     OW77654   8.131   2.844   2.060
25216SOL    HW177655   8.098   2.819   1.973
25216SOL    HW277656   8.101   2.934   2.072
25217SOL     OW77657   5.317   1.824   9.427
25217SOL    HW177658   5.267   1.743   9.440
25217SOL    HW277659   5.267   1.873   9.362
25218SOL     OW77660   2.724   2.908   2.737
25218SOL    HW177661   2.743   2.820   2.703
25218SOL    HW277662   2.777   2.915   2.816
25219SOL     OW77663   1.183   0.631   6.938
25219SOL    HW177664   1.236   0.691   6.885
25219SOL    HW277665   1.171   0.554   6.882
25220SOL     OW77666   6.825   5.515   6.725
25220SOL    HW177667   6.878   5.502   6.646
25220SOL    HW277668   6.745   5.466   6.707
25221SOL     OW77669   4.647   2.230   8.620
25221SOL    HW177670   4.606   2.167   8.680
25221SOL    HW277671   4.719   2.268   8.670
25222SOL     OW77672   0.379  10.812   8.346
25222SOL    HW177673   0.321  10.806   8.270
25222SOL    HW277674   0.320  10.805   8.421
25223SOL     OW77675   9.957   1.427   9.243
25223SOL    HW177676   9.999   1.342   9.255
25223SOL    HW277677   9.877   1.407   9.194
25224SOL     OW77678   5.161   4.465   9.680
25224SOL    HW177679   5.083   4.471   9.625
25224SOL    HW277680   5.232   4.499   9.625
25225SOL     OW77681   5.456   9.575   5.174
25225SOL    HW177682   5.393   9.577   5.246
25225SOL    HW277683   5.471   9.481   5.158
25226SOL     OW77684   9.938   4.626   0.286
25226SOL    HW177685   9.944   4.531   0.295
25226SOL    HW277686   9.845   4.643   0.273
25227SOL     OW77687   5.637   7.213   8.895
25227SOL    HW177688   5.657   7.160   8.972
25227SOL    HW277689   5.721   7.251   8.870
25228SOL     OW77690   9.139   4.817   3.604
25228SOL    HW177691   9.181   4.763   3.671
25228SOL    HW277692   9.061   4.768   3.579
25229SOL     OW77693   9.178   0.951   2.058
25229SOL    HW177694   9.141   1.016   1.998
25229SOL    HW277695   9.271   0.973   2.063
25230SOL     OW77696   3.005   3.236   2.112
25230SOL    HW177697   3.025   3.142   2.105
25230SOL    HW277698   3.066   3.277   2.051
25231SOL     OW77699   2.891   2.130   1.548
25231SOL    HW177700   2.919   2.141   1.457
25231SOL    HW277701   2.827   2.059   1.545
25232SOL     OW77702   9.270   1.574   0.777
25232SOL    HW177703   9.339   1.519   0.814
25232SOL    HW277704   9.254   1.536   0.690
25233SOL     OW77705   0.266   5.787   9.036
25233SOL    HW177706   0.356   5.785   9.004
25233SOL    HW277707   0.216   5.742   8.967
25234SOL     OW77708   4.651   9.666   2.623
25234SOL    HW177709   4.588   9.605   2.584
25234SOL    HW277710   4.674   9.726   2.552
25235SOL     OW77711   1.252   3.620   5.669
25235SOL    HW177712   1.212   3.633   5.583
25235SOL    HW277713   1.245   3.705   5.712
25236SOL     OW77714   2.182   6.019   2.347
25236SOL    HW177715   2.102   6.070   2.335
25236SOL    HW277716   2.153   5.928   2.341
25237SOL     OW77717   1.301   4.992   4.397
25237SOL    HW177718   1.223   4.960   4.351
25237SOL    HW277719   1.348   4.912   4.421
25238SOL     OW77720   7.120   0.768   7.519
25238SOL    HW177721   7.111   0.737   7.609
25238SOL    HW277722   7.183   0.840   7.525
25239SOL     OW77723   2.653   4.774  10.226
25239SOL    HW177724   2.743   4.790  10.197
25239SOL    HW277725   2.658   4.689  10.271
25240SOL     OW77726   0.221   6.059   7.805
25240SOL    HW177727   0.214   6.154   7.815
25240SOL    HW277728   0.240   6.046   7.712
25241SOL     OW77729   3.855   9.227   7.237
25241SOL    HW177730   3.905   9.201   7.159
25241SOL    HW277731   3.873   9.320   7.247
25242SOL     OW77732   5.861   9.620   2.212
25242SOL    HW177733   5.847   9.701   2.261
25242SOL    HW277734   5.948   9.591   2.238
25243SOL     OW77735   5.041   1.632   0.755
25243SOL    HW177736   5.126   1.596   0.782
25243SOL    HW277737   4.989   1.634   0.835
25244SOL     OW77738   5.586   4.366  10.463
25244SOL    HW177739   5.648   4.294  10.475
25244SOL    HW277740   5.636   4.444  10.486
25245SOL     OW77741   6.032   7.045   2.454
25245SOL    HW177742   6.105   7.103   2.477
25245SOL    HW277743   6.074   6.970   2.411
25246SOL     OW77744   8.898   3.851   4.826
25246SOL    HW177745   8.907   3.756   4.840
25246SOL    HW277746   8.901   3.861   4.731
25247SOL     OW77747   6.277   9.876   2.076
25247SOL    HW177748   6.205   9.929   2.042
25247SOL    HW277749   6.285   9.902   2.167
25248SOL     OW77750   9.411   6.345   6.421
25248SOL    HW177751   9.405   6.253   6.395
25248SOL    HW277752   9.323   6.379   6.408
25249SOL     OW77753  10.654   0.384   6.898
25249SOL    HW177754  10.736   0.347   6.865
25249SOL    HW277755  10.674   0.476   6.913
25250SOL     OW77756  10.724   5.963   7.306
25250SOL    HW177757  10.693   6.026   7.241
25250SOL    HW277758  10.798   6.006   7.348
25251SOL     OW77759   7.520   1.686   4.768
25251SOL    HW177760   7.583   1.720   4.704
25251SOL    HW277761   7.514   1.754   4.834
25252SOL     OW77762   4.509   5.350   8.169
25252SOL    HW177763   4.513   5.353   8.073
25252SOL    HW277764   4.552   5.267   8.192
25253SOL     OW77765  10.578   9.300   8.971
25253SOL    HW177766  10.599   9.206   8.970
25253SOL    HW277767  10.662   9.343   8.953
25254SOL     OW77768   3.282   0.808  10.781
25254SOL    HW177769   3.308   0.900  10.776
25254SOL    HW277770   3.213   0.799  10.715
25255SOL     OW77771   7.660   2.688  10.385
25255SOL    HW177772   7.700   2.771  10.361
25255SOL    HW277773   7.590   2.676  10.321
25256SOL     OW77774   5.322   2.855   9.061
25256SOL    HW177775   5.311   2.944   9.094
25256SOL    HW277776   5.238   2.834   9.020
25257SOL     OW77777   1.664   7.448   1.508
25257SOL    HW177778   1.650   7.362   1.548
25257SOL    HW277779   1.578   7.489   1.507
25258SOL     OW77780   6.891   4.834   3.117
25258SOL    HW177781   6.931   4.777   3.183
25258SOL    HW277782   6.885   4.919   3.159
25259SOL     OW77783   8.351   4.906  11.085
25259SOL    HW177784   8.406   4.967  11.036
25259SOL    HW277785   8.266   4.948  11.089
25260SOL     OW77786   4.429   8.560   7.911
25260SOL    HW177787   4.449   8.523   7.997
25260SOL    HW277788   4.351   8.613   7.925
25261SOL     OW77789   1.705   2.967   6.505
25261SOL    HW177790   1.767   2.895   6.520
25261SOL    HW277791   1.635   2.928   6.452
25262SOL     OW77792   5.580   7.794   0.307
25262SOL    HW177793   5.499   7.783   0.258
25262SOL    HW277794   5.612   7.880   0.281
25263SOL     OW77795   6.806   2.988   2.908
25263SOL    HW177796   6.770   3.059   2.854
25263SOL    HW277797   6.816   2.914   2.847
25264SOL     OW77798   2.084   3.979   3.946
25264SOL    HW177799   2.172   3.942   3.950
25264SOL    HW277800   2.028   3.905   3.920
25265SOL     OW77801   6.265   6.794   5.699
25265SOL    HW177802   6.317   6.728   5.746
25265SOL    HW277803   6.279   6.773   5.606
25266SOL     OW77804   8.723   2.104   2.422
25266SOL    HW177805   8.723   2.147   2.336
25266SOL    HW277806   8.811   2.067   2.430
25267SOL     OW77807  10.614   0.368   5.636
25267SOL    HW177808  10.647   0.458   5.636
25267SOL    HW277809  10.577   0.356   5.548
25268SOL     OW77810   9.631   5.660   3.347
25268SOL    HW177811   9.587   5.628   3.425
25268SOL    HW277812   9.720   5.681   3.376
25269SOL     OW77813   2.772   8.056   8.511
25269SOL    HW177814   2.751   8.093   8.596
25269SOL    HW277815   2.763   7.961   8.523
25270SOL     OW77816   8.507   0.279   8.388
25270SOL    HW177817   8.437   0.214   8.386
25270SOL    HW277818   8.524   0.293   8.481
25271SOL     OW77819   7.084   7.880   9.716
25271SOL    HW177820   7.141   7.908   9.644
25271SOL    HW277821   7.011   7.836   9.672
25272SOL     OW77822   2.865  10.961   1.470
25272SOL    HW177823   2.804  10.975   1.397
25272SOL    HW277824   2.879  11.048   1.506
25273SOL     OW77825   5.685   8.961   2.669
25273SOL    HW177826   5.620   8.970   2.600
25273SOL    HW277827   5.750   8.901   2.632
25274SOL     OW77828   9.982   6.831   0.006
25274SOL    HW177829  10.065   6.818  -0.040
25274SOL    HW277830  10.003   6.812   0.098
25275SOL     OW77831   9.217   1.698   0.079
25275SOL    HW177832   9.252   1.646   0.152
25275SOL    HW277833   9.127   1.718   0.106
25276SOL     OW77834   2.305  11.025   6.457
25276SOL    HW177835   2.247  11.101   6.459
25276SOL    HW277836   2.287  10.983   6.373
25277SOL     OW77837   6.817   8.369   4.377
25277SOL    HW177838   6.778   8.282   4.375
25277SOL    HW277839   6.749   8.425   4.412
25278SOL     OW77840   6.956   5.950   9.609
25278SOL    HW177841   6.914   5.955   9.523
25278SOL    HW277842   7.039   5.997   9.598
25279SOL     OW77843   2.808   2.416   2.132
25279SOL    HW177844   2.743   2.392   2.198
25279SOL    HW277845   2.850   2.494   2.167
25280SOL     OW77846   9.327   6.115  10.711
25280SOL    HW177847   9.390   6.091  10.642
25280SOL    HW277848   9.242   6.090  10.675
25281SOL     OW77849   3.013   6.545   7.284
25281SOL    HW177850   3.034   6.628   7.242
25281SOL    HW277851   3.021   6.480   7.214
25282SOL     OW77852   6.809   6.337   2.422
25282SOL    HW177853   6.843   6.386   2.347
25282SOL    HW277854   6.714   6.350   2.418
25283SOL     OW77855   5.556   3.402   9.106
25283SOL    HW177856   5.564   3.439   9.194
25283SOL    HW277857   5.464   3.378   9.098
25284SOL     OW77858   9.993   8.642   9.078
25284SOL    HW177859  10.065   8.642   9.015
25284SOL    HW277860   9.991   8.731   9.112
25285SOL     OW77861  10.016   7.763   5.308
25285SOL    HW177862  10.005   7.857   5.300
25285SOL    HW277863   9.927   7.728   5.305
25286SOL     OW77864   1.074   6.942   0.522
25286SOL    HW177865   1.097   6.936   0.429
25286SOL    HW277866   1.022   7.022   0.529
25287SOL     OW77867   5.498   1.602   0.713
25287SOL    HW177868   5.578   1.558   0.743
25287SOL    HW277869   5.490   1.679   0.769
25288SOL     OW77870   9.133   1.267   0.717
25288SOL    HW177871   9.113   1.196   0.778
25288SOL    HW277872   9.048   1.292   0.681
25289SOL     OW77873   8.368   1.645   1.686
25289SOL    HW177874   8.366   1.550   1.702
25289SOL    HW277875   8.424   1.680   1.755
25290SOL     OW77876   0.822   8.275   3.791
25290SOL    HW177877   0.804   8.347   3.851
25290SOL    HW277878   0.833   8.198   3.847
25291SOL     OW77879   7.439   7.746   8.725
25291SOL    HW177880   7.468   7.836   8.711
25291SOL    HW277881   7.513   7.692   8.696
25292SOL     OW77882   8.043   1.031   8.561
25292SOL    HW177883   8.093   0.950   8.575
25292SOL    HW277884   8.106   1.091   8.520
25293SOL     OW77885   3.766   5.200   9.503
25293SOL    HW177886   3.762   5.236   9.591
25293SOL    HW277887   3.855   5.218   9.473
25294SOL     OW77888   5.656   4.345   4.643
25294SOL    HW177889   5.562   4.328   4.645
25294SOL    HW277890   5.696   4.258   4.642
25295SOL     OW77891   6.495   1.203   6.600
25295SOL    HW177892   6.420   1.144   6.607
25295SOL    HW277893   6.459   1.289   6.619
25296SOL     OW77894   2.967   4.998   2.359
25296SOL    HW177895   2.989   4.998   2.452
25296SOL    HW277896   2.901   5.067   2.349
25297SOL     OW77897   1.742   4.494   5.704
25297SOL    HW177898   1.774   4.439   5.632
25297SOL    HW277899   1.754   4.440   5.782
25298SOL     OW77900   3.185   0.524  10.063
25298SOL    HW177901   3.193   0.479   9.979
25298SOL    HW277902   3.091   0.523  10.082
25299SOL     OW77903   5.351   0.995   8.030
25299SOL    HW177904   5.386   1.043   7.955
25299SOL    HW277905   5.424   0.991   8.092
25300SOL     OW77906   6.276   6.854   8.664
25300SOL    HW177907   6.248   6.826   8.751
25300SOL    HW277908   6.228   6.935   8.648
25301SOL     OW77909   9.308   5.207   1.548
25301SOL    HW177910   9.335   5.129   1.499
25301SOL    HW277911   9.312   5.278   1.484
25302SOL     OW77912   3.022   5.397   0.009
25302SOL    HW177913   3.062   5.316  -0.023
25302SOL    HW277914   3.025   5.456  -0.065
25303SOL     OW77915   9.107   2.617   4.687
25303SOL    HW177916   9.067   2.530   4.675
25303SOL    HW277917   9.175   2.603   4.753
25304SOL     OW77918   1.915   7.504   3.823
25304SOL    HW177919   1.842   7.485   3.881
25304SOL    HW277920   1.991   7.509   3.880
25305SOL     OW77921   8.380   6.480   9.294
25305SOL    HW177922   8.319   6.451   9.362
25305SOL    HW277923   8.388   6.404   9.236
25306SOL     OW77924   3.986   2.118  10.725
25306SOL    HW177925   3.947   2.102  10.811
25306SOL    HW277926   3.913   2.147  10.670
25307SOL     OW77927   2.856   9.737   5.573
25307SOL    HW177928   2.843   9.827   5.545
25307SOL    HW277929   2.911   9.698   5.504
25308SOL     OW77930   3.166   0.099   2.342
25308SOL    HW177931   3.259   0.078   2.354
25308SOL    HW277932   3.127   0.015   2.316
25309SOL     OW77933   4.552   2.021   2.493
25309SOL    HW177934   4.527   2.088   2.429
25309SOL    HW277935   4.588   2.070   2.567
25310SOL     OW77936   6.464  10.772   6.455
25310SOL    HW177937   6.420  10.857   6.460
25310SOL    HW277938   6.539  10.780   6.514
25311SOL     OW77939   6.443   7.794   7.578
25311SOL    HW177940   6.497   7.872   7.590
25311SOL    HW277941   6.426   7.763   7.667
25312SOL     OW77942   5.050   3.982  10.049
25312SOL    HW177943   5.112   3.931  10.101
25312SOL    HW277944   5.099   4.006   9.970
25313SOL     OW77945   4.906   7.601   2.128
25313SOL    HW177946   4.853   7.678   2.107
25313SOL    HW277947   4.987   7.612   2.077
25314SOL     OW77948   0.187   3.027  11.081
25314SOL    HW177949   0.257   2.962  11.089
25314SOL    HW277950   0.230   3.105  11.047
25315SOL     OW77951   9.285   1.209   2.569
25315SOL    HW177952   9.270   1.118   2.597
25315SOL    HW277953   9.247   1.213   2.481
25316SOL     OW77954   7.128   1.299   0.426
25316SOL    HW177955   7.083   1.382   0.414
25316SOL    HW277956   7.079   1.255   0.495
25317SOL     OW77957   9.808   5.252   7.492
25317SOL    HW177958   9.831   5.345   7.490
25317SOL    HW277959   9.771   5.237   7.579
25318SOL     OW77960   5.630   0.046   9.256
25318SOL    HW177961   5.589  -0.037   9.281
25318SOL    HW277962   5.628   0.045   9.160
25319SOL     OW77963   8.703   7.802   8.153
25319SOL    HW177964   8.720   7.882   8.103
25319SOL    HW277965   8.731   7.822   8.242
25320SOL     OW77966   3.068   3.022  10.444
25320SOL    HW177967   3.002   3.019  10.512
25320SOL    HW277968   3.151   3.029  10.491
25321SOL     OW77969   6.365  10.371   1.076
25321SOL    HW177970   6.322  10.411   1.000
25321SOL    HW277971   6.455  10.356   1.047
25322SOL     OW77972  10.566   9.431   8.704
25322SOL    HW177973  10.497   9.491   8.732
25322SOL    HW277974  10.604   9.398   8.785
25323SOL     OW77975   4.348   9.761   9.160
25323SOL    HW177976   4.406   9.778   9.085
25323SOL    HW277977   4.285   9.833   9.159
25324SOL     OW77978   3.574   4.970  10.789
25324SOL    HW177979   3.578   4.882  10.828
25324SOL    HW277980   3.617   4.960  10.704
25325SOL     OW77981   7.995   6.619   1.961
25325SOL    HW177982   7.950   6.534   1.966
25325SOL    HW277983   7.944   6.677   2.017
25326SOL     OW77984   9.023   5.599  10.069
25326SOL    HW177985   9.064   5.520  10.104
25326SOL    HW277986   9.078   5.624   9.995
25327SOL     OW77987   9.399   4.769  11.022
25327SOL    HW177988   9.365   4.828  11.088
25327SOL    HW277989   9.322   4.721  10.991
25328SOL     OW77990   7.831   5.985  11.090
25328SOL    HW177991   7.872   5.960  11.172
25328SOL    HW277992   7.755   6.036  11.115
25329SOL     OW77993   4.972  10.481   7.409
25329SOL    HW177994   4.966  10.386   7.417
25329SOL    HW277995   4.932  10.515   7.489
25330SOL     OW77996   7.829   4.509   5.955
25330SOL    HW177997   7.825   4.539   5.864
25330SOL    HW277998   7.770   4.567   6.002
25331SOL     OW77999   3.213   5.104   2.240
25331SOL    HW178000   3.161   5.062   2.308
25331SOL    HW278001   3.237   5.032   2.180
25332SOL     OW78002   4.166   7.376  10.075
25332SOL    HW178003   4.246   7.348  10.120
25332SOL    HW278004   4.101   7.386  10.144
25333SOL     OW78005   8.550   9.488   0.585
25333SOL    HW178006   8.644   9.502   0.572
25333SOL    HW278007   8.521   9.564   0.635
25334SOL     OW78008   6.935   1.122   5.233
25334SOL    HW178009   6.864   1.164   5.184
25334SOL    HW278010   6.901   1.111   5.321
25335SOL     OW78011   6.190   4.594   1.992
25335SOL    HW178012   6.126   4.570   1.924
25335SOL    HW278013   6.145   4.578   2.074
25336SOL     OW78014   8.649   6.687   8.272
25336SOL    HW178015   8.693   6.744   8.209
25336SOL    HW278016   8.712   6.678   8.343
25337SOL     OW78017   7.354   3.345   3.618
25337SOL    HW178018   7.389   3.394   3.692
25337SOL    HW278019   7.349   3.408   3.546
25338SOL     OW78020   9.240   2.650   9.563
25338SOL    HW178021   9.225   2.577   9.623
25338SOL    HW278022   9.201   2.725   9.606
25339SOL     OW78023   0.011   2.280   1.912
25339SOL    HW178024  -0.033   2.330   1.843
25339SOL    HW278025  -0.049   2.284   1.986
25340SOL     OW78026   2.415   9.459  10.066
25340SOL    HW178027   2.384   9.379  10.023
25340SOL    HW278028   2.500   9.435  10.102
25341SOL     OW78029  10.810   1.925   8.967
25341SOL    HW178030  10.726   1.966   8.987
25341SOL    HW278031  10.803   1.837   9.004
25342SOL     OW78032   8.788   0.008   3.406
25342SOL    HW178033   8.834   0.032   3.325
25342SOL    HW278034   8.831   0.060   3.474
25343SOL     OW78035   5.727   5.945   3.547
25343SOL    HW178036   5.654   5.999   3.576
25343SOL    HW278037   5.805   5.997   3.568
25344SOL     OW78038  10.584   5.431   2.754
25344SOL    HW178039  10.559   5.514   2.713
25344SOL    HW278040  10.611   5.455   2.842
25345SOL     OW78041  10.414   6.484  11.082
25345SOL    HW178042  10.408   6.425  11.157
25345SOL    HW278043  10.325   6.489  11.048
25346SOL     OW78044   6.765   2.500   6.790
25346SOL    HW178045   6.730   2.510   6.701
25346SOL    HW278046   6.689   2.478   6.844
25347SOL     OW78047   7.171   9.566   4.716
25347SOL    HW178048   7.125   9.518   4.647
25347SOL    HW278049   7.201   9.646   4.673
25348SOL     OW78050   6.728   3.410  10.736
25348SOL    HW178051   6.784   3.375  10.667
25348SOL    HW278052   6.727   3.341  10.803
25349SOL     OW78053   7.466   0.880   5.702
25349SOL    HW178054   7.449   0.924   5.785
25349SOL    HW278055   7.548   0.832   5.716
25350SOL     OW78056   5.859   2.992  10.936
25350SOL    HW178057   5.939   2.943  10.916
25350SOL    HW278058   5.877   3.033  11.020
25351SOL     OW78059  10.028   4.549   1.370
25351SOL    HW178060  10.079   4.605   1.311
25351SOL    HW278061  10.089   4.479   1.395
25352SOL     OW78062  11.088   8.774   0.279
25352SOL    HW178063  11.146   8.848   0.263
25352SOL    HW278064  11.139   8.698   0.250
25353SOL     OW78065   8.926   7.754   5.875
25353SOL    HW178066   8.837   7.781   5.853
25353SOL    HW278067   8.924   7.658   5.870
25354SOL     OW78068   2.872   9.689   4.868
25354SOL    HW178069   2.904   9.685   4.958
25354SOL    HW278070   2.951   9.699   4.814
25355SOL     OW78071   2.865   0.165   7.530
25355SOL    HW178072   2.949   0.161   7.575
25355SOL    HW278073   2.871   0.242   7.474
25356SOL     OW78074   9.770   5.159   8.821
25356SOL    HW178075   9.708   5.190   8.755
25356SOL    HW278076   9.732   5.077   8.854
25357SOL     OW78077   2.936   1.149   2.671
25357SOL    HW178078   2.878   1.138   2.746
25357SOL    HW278079   2.896   1.096   2.601
25358SOL     OW78080   5.011   0.551  10.713
25358SOL    HW178081   5.092   0.597  10.693
25358SOL    HW278082   4.964   0.609  10.773
25359SOL     OW78083   7.338   3.909   0.704
25359SOL    HW178084   7.309   3.825   0.668
25359SOL    HW278085   7.307   3.974   0.641
25360SOL     OW78086  10.941   7.681   3.072
25360SOL    HW178087  11.006   7.674   3.142
25360SOL    HW278088  10.858   7.694   3.117
25361SOL     OW78089   5.137   6.647   1.455
25361SOL    HW178090   5.063   6.611   1.406
25361SOL    HW278091   5.189   6.570   1.479
25362SOL     OW78092   4.825   6.838   9.746
25362SOL    HW178093   4.909   6.866   9.709
25362SOL    HW278094   4.768   6.828   9.669
25363SOL     OW78095   1.941   6.545   6.732
25363SOL    HW178096   1.889   6.527   6.810
25363SOL    HW278097   1.902   6.623   6.694
25364SOL     OW78098   3.783   9.785  11.008
25364SOL    HW178099   3.808   9.715  10.948
25364SOL    HW278100   3.695   9.810  10.980
25365SOL     OW78101   1.580   7.742   1.773
25365SOL    HW178102   1.501   7.692   1.795
25365SOL    HW278103   1.554   7.833   1.784
25366SOL     OW78104   8.646   8.163   1.033
25366SOL    HW178105   8.658   8.068   1.027
25366SOL    HW278106   8.556   8.174   1.063
25367SOL     OW78107   8.743   6.718   9.636
25367SOL    HW178108   8.779   6.660   9.569
25367SOL    HW278109   8.788   6.693   9.716
25368SOL     OW78110  10.328   6.769  10.177
25368SOL    HW178111  10.416   6.787  10.211
25368SOL    HW278112  10.318   6.830  10.104
25369SOL     OW78113   3.160   3.589   9.759
25369SOL    HW178114   3.219   3.656   9.725
25369SOL    HW278115   3.149   3.528   9.685
25370SOL     OW78116   7.082   0.244   9.602
25370SOL    HW178117   7.011   0.187   9.572
25370SOL    HW278118   7.098   0.303   9.528
25371SOL     OW78119  10.358   0.893   2.850
25371SOL    HW178120  10.285   0.917   2.907
25371SOL    HW278121  10.432   0.944   2.883
25372SOL     OW78122   1.921   9.461   3.596
25372SOL    HW178123   1.964   9.398   3.537
25372SOL    HW278124   1.992   9.519   3.624
25373SOL     OW78125   4.637   5.938   1.018
25373SOL    HW178126   4.625   5.892   1.101
25373SOL    HW278127   4.642   5.868   0.953
25374SOL     OW78128  10.180   4.559   5.244
25374SOL    HW178129  10.117   4.517   5.186
25374SOL    HW278130  10.254   4.581   5.187
25375SOL     OW78131   7.286   3.101   9.396
25375SOL    HW178132   7.240   3.159   9.335
25375SOL    HW278133   7.366   3.075   9.349
25376SOL     OW78134   6.350   2.620   1.426
25376SOL    HW178135   6.397   2.655   1.350
25376SOL    HW278136   6.412   2.560   1.467
25377SOL     OW78137   3.597   4.020   8.130
25377SOL    HW178138   3.517   4.053   8.089
25377SOL    HW278139   3.574   3.931   8.159
25378SOL     OW78140   1.649   1.035   9.208
25378SOL    HW178141   1.629   0.956   9.157
25378SOL    HW278142   1.646   1.106   9.144
25379SOL     OW78143   6.957   5.986   7.687
25379SOL    HW178144   6.938   6.029   7.770
25379SOL    HW278145   6.898   5.910   7.685
25380SOL     OW78146   0.466   4.042   9.544
25380SOL    HW178147   0.531   4.066   9.610
25380SOL    HW278148   0.516   3.994   9.478
25381SOL     OW78149   7.683   6.235   1.436
25381SOL    HW178150   7.711   6.322   1.465
25381SOL    HW278151   7.633   6.200   1.509
25382SOL     OW78152   3.527   7.789   7.907
25382SOL    HW178153   3.514   7.717   7.969
25382SOL    HW278154   3.527   7.747   7.821
25383SOL     OW78155   5.613   7.040   0.169
25383SOL    HW178156   5.560   7.076   0.099
25383SOL    HW278157   5.557   6.973   0.209
25384SOL     OW78158   3.687   4.979   4.352
25384SOL    HW178159   3.755   4.962   4.417
25384SOL    HW278160   3.661   5.070   4.366
25385SOL     OW78161   9.316   8.249   0.333
25385SOL    HW178162   9.240   8.296   0.366
25385SOL    HW278163   9.385   8.264   0.398
25386SOL     OW78164   3.994   0.124   8.771
25386SOL    HW178165   3.912   0.080   8.748
25386SOL    HW278166   4.041   0.060   8.825
25387SOL     OW78167   6.877   5.647   9.714
25387SOL    HW178168   6.786   5.643   9.683
25387SOL    HW278169   6.872   5.630   9.808
25388SOL     OW78170   0.581   2.008   1.499
25388SOL    HW178171   0.652   2.059   1.459
25388SOL    HW278172   0.501   2.052   1.471
25389SOL     OW78173   9.226   4.421  10.408
25389SOL    HW178174   9.232   4.327  10.388
25389SOL    HW278175   9.135   4.434  10.435
25390SOL     OW78176   7.821   3.819   3.779
25390SOL    HW178177   7.861   3.896   3.818
25390SOL    HW278178   7.768   3.853   3.707
25391SOL     OW78179   6.731   6.000   6.564
25391SOL    HW178180   6.778   5.926   6.602
25391SOL    HW278181   6.792   6.037   6.500
25392SOL     OW78182   3.708   5.847   2.902
25392SOL    HW178183   3.736   5.909   2.834
25392SOL    HW278184   3.790   5.817   2.942
25393SOL     OW78185   6.149   7.461   9.704
25393SOL    HW178186   6.149   7.493   9.794
25393SOL    HW278187   6.157   7.366   9.712
25394SOL     OW78188   0.615   2.369  10.549
25394SOL    HW178189   0.677   2.330  10.611
25394SOL    HW278190   0.651   2.455  10.530
25395SOL     OW78191   0.627   2.022   6.169
25395SOL    HW178192   0.702   2.049   6.116
25395SOL    HW278193   0.590   1.947   6.122
25396SOL     OW78194   6.294   9.805   1.519
25396SOL    HW178195   6.330   9.752   1.447
25396SOL    HW278196   6.366   9.862   1.545
25397SOL     OW78197   1.738   8.875  10.577
25397SOL    HW178198   1.721   8.969  10.582
25397SOL    HW278199   1.740   8.856  10.483
25398SOL     OW78200   4.755   1.711   2.883
25398SOL    HW178201   4.813   1.725   2.957
25398SOL    HW278202   4.700   1.789   2.879
25399SOL     OW78203   2.844   3.984   7.038
25399SOL    HW178204   2.791   3.919   7.084
25399SOL    HW278205   2.910   4.011   7.102
25400SOL     OW78206   5.902   3.816   1.935
25400SOL    HW178207   5.970   3.876   1.964
25400SOL    HW278208   5.950   3.748   1.887
25401SOL     OW78209   3.486   3.306  10.498
25401SOL    HW178210   3.532   3.389  10.484
25401SOL    HW278211   3.467   3.304  10.591
25402SOL     OW78212   4.189   6.096   9.092
25402SOL    HW178213   4.194   6.188   9.065
25402SOL    HW278214   4.120   6.093   9.158
25403SOL     OW78215   5.455   8.089   7.879
25403SOL    HW178216   5.501   8.054   7.955
25403SOL    HW278217   5.362   8.078   7.900
25404SOL     OW78218   3.506   7.808   9.088
25404SOL    HW178219   3.595   7.816   9.124
25404SOL    HW278220   3.449   7.840   9.158
25405SOL     OW78221   5.783  10.161   0.000
25405SOL    HW178222   5.857  10.109   0.031
25405SOL    HW278223   5.751  10.206   0.078
25406SOL     OW78224   5.212   0.844   2.365
25406SOL    HW178225   5.195   0.824   2.457
25406SOL    HW278226   5.150   0.913   2.343
25407SOL     OW78227   5.290   7.324   1.853
25407SOL    HW178228   5.279   7.230   1.869
25407SOL    HW278229   5.323   7.359   1.936
25408SOL     OW78230   0.419   5.213   3.891
25408SOL    HW178231   0.433   5.227   3.797
25408SOL    HW278232   0.352   5.277   3.915
25409SOL     OW78233   5.565   5.993   9.857
25409SOL    HW178234   5.647   5.944   9.864
25409SOL    HW278235   5.499   5.935   9.895
25410SOL     OW78236   5.657   4.108   1.251
25410SOL    HW178237   5.612   4.167   1.310
25410SOL    HW278238   5.743   4.148   1.237
25411SOL     OW78239   0.834   2.153   2.089
25411SOL    HW178240   0.833   2.246   2.109
25411SOL    HW278241   0.912   2.120   2.134
25412SOL     OW78242   1.915   3.151   1.153
25412SOL    HW178243   1.864   3.202   1.215
25412SOL    HW278244   1.863   3.153   1.072
25413SOL     OW78245   5.507   8.723   1.154
25413SOL    HW178246   5.491   8.817   1.144
25413SOL    HW278247   5.476   8.702   1.242
25414SOL     OW78248   3.481   5.320   9.649
25414SOL    HW178249   3.508   5.259   9.718
25414SOL    HW278250   3.456   5.400   9.695
25415SOL     OW78251   3.951   6.472   2.781
25415SOL    HW178252   3.879   6.417   2.812
25415SOL    HW278253   3.945   6.467   2.685
25416SOL     OW78254   2.675   9.678   0.403
25416SOL    HW178255   2.695   9.663   0.495
25416SOL    HW278256   2.580   9.676   0.398
25417SOL     OW78257  10.613   6.271   0.734
25417SOL    HW178258  10.595   6.236   0.821
25417SOL    HW278259  10.709   6.269   0.727
25418SOL     OW78260   0.103   1.789  10.137
25418SOL    HW178261   0.043   1.820  10.204
25418SOL    HW278262   0.154   1.720  10.180
25419SOL     OW78263   7.291  11.003   9.202
25419SOL    HW178264   7.276  11.040   9.115
25419SOL    HW278265   7.346  10.926   9.186
25420SOL     OW78266   4.549   8.109  10.196
25420SOL    HW178267   4.493   8.058  10.137
25420SOL    HW278268   4.606   8.044  10.237
25421SOL     OW78269  11.042   2.367   0.084
25421SOL    HW178270  10.988   2.400   0.156
25421SOL    HW278271  11.014   2.276   0.073
25422SOL     OW78272   4.534   3.536   5.010
25422SOL    HW178273   4.492   3.621   5.022
25422SOL    HW278274   4.463   3.477   4.984
25423SOL     OW78275   7.898   4.452  10.166
25423SOL    HW178276   7.938   4.527  10.122
25423SOL    HW278277   7.807   4.478  10.180
25424SOL     OW78278   0.696   5.738   9.440
25424SOL    HW178279   0.787   5.708   9.449
25424SOL    HW278280   0.651   5.665   9.397
25425SOL     OW78281  10.225   0.115   8.100
25425SOL    HW178282  10.246   0.101   8.007
25425SOL    HW278283  10.203   0.027   8.132
25426SOL     OW78284   8.222   6.051   1.127
25426SOL    HW178285   8.265   6.077   1.208
25426SOL    HW278286   8.188   6.132   1.090
25427SOL     OW78287   5.198   7.765   8.647
25427SOL    HW178288   5.271   7.823   8.626
25427SOL    HW278289   5.174   7.787   8.737
25428SOL     OW78290   7.284   5.112   3.732
25428SOL    HW178291   7.276   5.158   3.815
25428SOL    HW278292   7.263   5.021   3.753
25429SOL     OW78293   5.313   4.707   5.280
25429SOL    HW178294   5.234   4.720   5.332
25429SOL    HW278295   5.340   4.795   5.254
25430SOL     OW78296   6.410   7.353   1.324
25430SOL    HW178297   6.486   7.295   1.331
25430SOL    HW278298   6.341   7.306   1.371
25431SOL     OW78299   3.891   5.758   5.522
25431SOL    HW178300   3.829   5.769   5.594
25431SOL    HW278301   3.947   5.685   5.549
25432SOL     OW78302   7.453   5.404   2.397
25432SOL    HW178303   7.428   5.490   2.431
25432SOL    HW278304   7.385   5.383   2.333
25433SOL     OW78305   5.686   7.009   2.885
25433SOL    HW178306   5.658   7.043   2.800
25433SOL    HW278307   5.730   6.926   2.864
25434SOL     OW78308   3.978   9.159   4.365
25434SOL    HW178309   3.981   9.254   4.369
25434SOL    HW278310   3.954   9.140   4.274
25435SOL     OW78311   9.480   5.665   2.996
25435SOL    HW178312   9.435   5.620   2.924
25435SOL    HW278313   9.565   5.620   3.002
25436SOL     OW78314   0.961   4.992   2.689
25436SOL    HW178315   1.026   4.923   2.703
25436SOL    HW278316   0.877   4.946   2.687
25437SOL     OW78317   6.271   6.830   3.114
25437SOL    HW178318   6.255   6.757   3.174
25437SOL    HW278319   6.300   6.787   3.033
25438SOL     OW78320   0.478   5.205   1.827
25438SOL    HW178321   0.570   5.180   1.838
25438SOL    HW278322   0.443   5.209   1.916
25439SOL     OW78323   1.601   2.095   2.932
25439SOL    HW178324   1.665   2.024   2.941
25439SOL    HW278325   1.516   2.051   2.936
25440SOL     OW78326  10.035  10.050   9.180
25440SOL    HW178327   9.982  10.026   9.103
25440SOL    HW278328  10.096   9.977   9.190
25441SOL     OW78329   5.757   5.546   7.763
25441SOL    HW178330   5.760   5.635   7.728
25441SOL    HW278331   5.807   5.494   7.700
25442SOL     OW78332   6.730   2.549   2.578
25442SOL    HW178333   6.685   2.578   2.498
25442SOL    HW278334   6.717   2.454   2.579
25443SOL     OW78335  10.521   2.576   0.987
25443SOL    HW178336  10.524   2.509   1.055
25443SOL    HW278337  10.548   2.529   0.907
25444SOL     OW78338   6.840   2.411   1.717
25444SOL    HW178339   6.858   2.325   1.678
25444SOL    HW278340   6.861   2.400   1.809
25445SOL     OW78341  10.582   2.678   3.754
25445SOL    HW178342  10.674   2.696   3.772
25445SOL    HW278343  10.582   2.592   3.712
25446SOL     OW78344   9.906   6.620   1.483
25446SOL    HW178345   9.918   6.672   1.562
25446SOL    HW278346   9.927   6.679   1.411
25447SOL     OW78347   9.154   5.369   0.968
25447SOL    HW178348   9.134   5.355   0.875
25447SOL    HW278349   9.223   5.435   0.968
25448SOL     OW78350   7.040   0.019   5.094
25448SOL    HW178351   7.123   0.023   5.046
25448SOL    HW278352   7.044  -0.065   5.140
25449SOL     OW78353  10.964   7.844   8.682
25449SOL    HW178354  10.884   7.858   8.632
25449SOL    HW278355  11.033   7.840   8.616
25450SOL     OW78356   2.950   7.316   8.988
25450SOL    HW178357   2.860   7.339   9.011
25450SOL    HW278358   2.988   7.281   9.069
25451SOL     OW78359   0.341  10.314   4.838
25451SOL    HW178360   0.294  10.384   4.883
25451SOL    HW278361   0.362  10.251   4.907
25452SOL     OW78362   4.828   3.386   0.260
25452SOL    HW178363   4.828   3.364   0.167
25452SOL    HW278364   4.913   3.356   0.292
25453SOL     OW78365   6.834   0.822   9.563
25453SOL    HW178366   6.790   0.747   9.522
25453SOL    HW278367   6.763   0.875   9.599
25454SOL     OW78368   7.794   8.541   5.670
25454SOL    HW178369   7.877   8.494   5.670
25454SOL    HW278370   7.781   8.565   5.578
25455SOL     OW78371   9.391   5.998   2.797
25455SOL    HW178372   9.346   5.927   2.843
25455SOL    HW278373   9.484   5.979   2.809
25456SOL     OW78374  10.045   9.933   0.094
25456SOL    HW178375  10.030   9.848   0.137
25456SOL    HW278376  10.031   9.997   0.164
25457SOL     OW78377   9.170   9.097  10.978
25457SOL    HW178378   9.203   9.108  10.888
25457SOL    HW278379   9.093   9.041  10.968
25458SOL     OW78380   3.028   6.091   6.049
25458SOL    HW178381   3.004   6.022   6.111
25458SOL    HW278382   3.078   6.154   6.100
25459SOL     OW78383   3.265   9.651   1.357
25459SOL    HW178384   3.299   9.732   1.319
25459SOL    HW278385   3.223   9.606   1.283
25460SOL     OW78386   6.846   8.710   1.477
25460SOL    HW178387   6.806   8.659   1.406
25460SOL    HW278388   6.834   8.656   1.555
25461SOL     OW78389   9.400   3.677   5.489
25461SOL    HW178390   9.461   3.656   5.559
25461SOL    HW278391   9.455   3.685   5.411
25462SOL     OW78392   5.103   5.226   3.434
25462SOL    HW178393   5.168   5.198   3.369
25462SOL    HW278394   5.154   5.274   3.499
25463SOL     OW78395   5.886   1.701   9.786
25463SOL    HW178396   5.975   1.698   9.749
25463SOL    HW278397   5.848   1.781   9.751
25464SOL     OW78398   1.189  10.047   7.142
25464SOL    HW178399   1.103  10.077   7.172
25464SOL    HW278400   1.192   9.954   7.167
25465SOL     OW78401   1.118   6.855   5.489
25465SOL    HW178402   1.145   6.929   5.435
25465SOL    HW278403   1.050   6.890   5.546
25466SOL     OW78404   3.693   3.506   8.235
25466SOL    HW178405   3.745   3.472   8.308
25466SOL    HW278406   3.624   3.557   8.276
25467SOL     OW78407   7.309   2.543   3.736
25467SOL    HW178408   7.268   2.531   3.821
25467SOL    HW278409   7.401   2.521   3.750
25468SOL     OW78410   4.930   1.031   0.388
25468SOL    HW178411   4.837   1.044   0.406
25468SOL    HW278412   4.969   1.118   0.398
25469SOL     OW78413   3.310   9.675   8.301
25469SOL    HW178414   3.284   9.751   8.249
25469SOL    HW278415   3.398   9.696   8.332
25470SOL     OW78416   8.228   7.709   0.080
25470SOL    HW178417   8.250   7.648   0.009
25470SOL    HW278418   8.155   7.667   0.126
25471SOL     OW78419   9.256   4.209   2.978
25471SOL    HW178420   9.351   4.205   2.993
25471SOL    HW278421   9.226   4.281   3.033
25472SOL     OW78422   7.663   7.120   1.133
25472SOL    HW178423   7.678   7.196   1.189
25472SOL    HW278424   7.624   7.156   1.053
25473SOL     OW78425   5.652   2.316   7.533
25473SOL    HW178426   5.690   2.334   7.447
25473SOL    HW278427   5.598   2.392   7.552
25474SOL     OW78428  10.282   5.455   8.229
25474SOL    HW178429  10.293   5.548   8.212
25474SOL    HW278430  10.357   5.414   8.186
25475SOL     OW78431   0.881  10.446   4.053
25475SOL    HW178432   0.961  10.481   4.092
25475SOL    HW278433   0.858  10.371   4.108
25476SOL     OW78434   8.387   6.415   9.704
25476SOL    HW178435   8.349   6.398   9.790
25476SOL    HW278436   8.473   6.372   9.706
25477SOL     OW78437   6.190   6.598   7.754
25477SOL    HW178438   6.241   6.676   7.773
25477SOL    HW278439   6.143   6.619   7.673
25478SOL     OW78440   9.069   5.439   3.497
25478SOL    HW178441   9.096   5.446   3.588
25478SOL    HW278442   8.981   5.401   3.500
25479SOL     OW78443   3.931   4.258   2.182
25479SOL    HW178444   3.848   4.249   2.136
25479SOL    HW278445   3.965   4.168   2.187
25480SOL     OW78446   7.409   5.826   0.948
25480SOL    HW178447   7.314   5.817   0.958
25480SOL    HW278448   7.436   5.745   0.903
25481SOL     OW78449   3.643   1.017   5.892
25481SOL    HW178450   3.651   1.082   5.962
25481SOL    HW278451   3.729   1.017   5.849
25482SOL     OW78452   5.722   4.246   3.643
25482SOL    HW178453   5.643   4.245   3.589
25482SOL    HW278454   5.783   4.302   3.595
25483SOL     OW78455   3.417   8.146   5.368
25483SOL    HW178456   3.421   8.103   5.453
25483SOL    HW278457   3.381   8.232   5.386
25484SOL     OW78458   8.961   0.194   0.906
25484SOL    HW178459   8.983   0.198   0.999
25484SOL    HW278460   8.995   0.109   0.877
25485SOL     OW78461  10.711   4.567   1.013
25485SOL    HW178462  10.804   4.570   0.991
25485SOL    HW278463  10.699   4.480   1.052
25486SOL     OW78464   2.370   7.503   8.670
25486SOL    HW178465   2.297   7.445   8.692
25486SOL    HW278466   2.330   7.575   8.622
25487SOL     OW78467   8.710   1.435   2.484
25487SOL    HW178468   8.774   1.388   2.537
25487SOL    HW278469   8.715   1.525   2.514
25488SOL     OW78470   9.813   6.295   1.310
25488SOL    HW178471   9.732   6.284   1.260
25488SOL    HW278472   9.786   6.341   1.389
25489SOL     OW78473   4.372  10.083  10.966
25489SOL    HW178474   4.334  10.167  10.941
25489SOL    HW278475   4.342  10.022  10.898
25490SOL     OW78476   8.417   0.014   4.819
25490SOL    HW178477   8.407   0.061   4.736
25490SOL    HW278478   8.512   0.009   4.833
25491SOL     OW78479   5.007   7.535   6.089
25491SOL    HW178480   5.021   7.571   6.176
25491SOL    HW278481   4.914   7.512   6.087
25492SOL     OW78482   7.165   4.558   4.439
25492SOL    HW178483   7.134   4.489   4.497
25492SOL    HW278484   7.208   4.511   4.367
25493SOL     OW78485  10.211   3.078   8.777
25493SOL    HW178486  10.213   3.005   8.839
25493SOL    HW278487  10.126   3.070   8.733
25494SOL     OW78488   2.211   7.507   4.907
25494SOL    HW178489   2.272   7.435   4.923
25494SOL    HW278490   2.227   7.569   4.978
25495SOL     OW78491   7.818   0.218  10.557
25495SOL    HW178492   7.876   0.149  10.523
25495SOL    HW278493   7.858   0.245  10.639
25496SOL     OW78494   7.664   9.508   1.855
25496SOL    HW178495   7.730   9.487   1.922
25496SOL    HW278496   7.710   9.566   1.794
25497SOL     OW78497   0.761   1.634   8.260
25497SOL    HW178498   0.844   1.628   8.211
25497SOL    HW278499   0.725   1.545   8.257
25498SOL     OW78500   0.143   7.689  10.391
25498SOL    HW178501   0.225   7.644  10.369
25498SOL    HW278502   0.083   7.618  10.414
25499SOL     OW78503   0.305  10.102   5.277
25499SOL    HW178504   0.357  10.175   5.310
25499SOL    HW278505   0.282  10.127   5.187
25500SOL     OW78506   5.869   5.809  10.913
25500SOL    HW178507   5.902   5.887  10.957
25500SOL    HW278508   5.874   5.830  10.819
25501SOL     OW78509   0.128   8.386   7.655
25501SOL    HW178510   0.065   8.375   7.583
25501SOL    HW278511   0.156   8.477   7.649
25502SOL     OW78512   5.607   6.882   3.590
25502SOL    HW178513   5.578   6.813   3.650
25502SOL    HW278514   5.548   6.874   3.515
25503SOL     OW78515   1.824   6.763  10.934
25503SOL    HW178516   1.818   6.709  11.013
25503SOL    HW278517   1.734   6.788  10.915
25504SOL     OW78518   8.262   1.132   7.169
25504SOL    HW178519   8.260   1.134   7.264
25504SOL    HW278520   8.294   1.218   7.144
25505SOL     OW78521   0.096   1.135   4.272
25505SOL    HW178522   0.106   1.048   4.233
25505SOL    HW278523   0.017   1.128   4.325
25506SOL     OW78524   8.510   5.358   1.030
25506SOL    HW178525   8.560   5.379   1.108
25506SOL    HW278526   8.442   5.298   1.060
25507SOL     OW78527   7.137   8.035  11.014
25507SOL    HW178528   7.190   7.966  11.054
25507SOL    HW278529   7.054   8.031  11.060
25508SOL     OW78530  10.919   3.372  10.946
25508SOL    HW178531  10.853   3.354  10.878
25508SOL    HW278532  10.890   3.453  10.987
25509SOL     OW78533   7.282   5.860   3.120
25509SOL    HW178534   7.304   5.768   3.136
25509SOL    HW278535   7.204   5.857   3.065
25510SOL     OW78536   5.255   5.285   0.342
25510SOL    HW178537   5.309   5.241   0.276
25510SOL    HW278538   5.202   5.347   0.292
25511SOL     OW78539   5.828   6.310   7.871
25511SOL    HW178540   5.885   6.384   7.890
25511SOL    HW278541   5.813   6.315   7.776
25512SOL     OW78542   0.918   5.252   2.313
25512SOL    HW178543   0.979   5.300   2.257
25512SOL    HW278544   0.974   5.193   2.364
25513SOL     OW78545   5.395   2.136   2.052
25513SOL    HW178546   5.474   2.104   2.009
25513SOL    HW278547   5.420   2.148   2.143
25514SOL     OW78548   5.007   5.386   4.043
25514SOL    HW178549   4.996   5.374   4.137
25514SOL    HW278550   4.982   5.302   4.005
25515SOL     OW78551   7.883   5.204   0.989
25515SOL    HW178552   7.816   5.268   0.964
25515SOL    HW278553   7.966   5.250   0.978
25516SOL     OW78554   1.768   7.969  10.950
25516SOL    HW178555   1.703   7.900  10.966
25516SOL    HW278556   1.851   7.932  10.981
25517SOL     OW78557   9.450   4.111   2.449
25517SOL    HW178558   9.394   4.125   2.525
25517SOL    HW278559   9.403   4.047   2.396
25518SOL     OW78560   7.364   8.092   4.812
25518SOL    HW178561   7.295   8.027   4.799
25518SOL    HW278562   7.395   8.111   4.723
25519SOL     OW78563   9.446   2.769   3.122
25519SOL    HW178564   9.398   2.692   3.091
25519SOL    HW278565   9.443   2.829   3.048
25520SOL     OW78566   8.625   2.352   3.066
25520SOL    HW178567   8.687   2.347   3.139
25520SOL    HW278568   8.611   2.260   3.041
25521SOL     OW78569   9.416   7.071   9.539
25521SOL    HW178570   9.425   7.166   9.535
25521SOL    HW278571   9.388   7.046   9.451
25522SOL     OW78572   8.117   7.584   3.569
25522SOL    HW178573   8.088   7.620   3.652
25522SOL    HW278574   8.150   7.496   3.591
25523SOL     OW78575   3.901   5.092  10.954
25523SOL    HW178576   3.876   5.021  10.894
25523SOL    HW278577   3.958   5.148  10.902
25524SOL     OW78578   5.182   9.619  10.730
25524SOL    HW178579   5.152   9.652  10.814
25524SOL    HW278580   5.275   9.640  10.728
25525SOL     OW78581   6.089   4.339   0.156
25525SOL    HW178582   6.080   4.267   0.093
25525SOL    HW278583   6.130   4.298   0.233
25526SOL     OW78584   1.284   2.570   5.860
25526SOL    HW178585   1.229   2.590   5.935
25526SOL    HW278586   1.373   2.586   5.890
25527SOL     OW78587   5.679   7.119   5.283
25527SOL    HW178588   5.665   7.025   5.267
25527SOL    HW278589   5.717   7.123   5.370
25528SOL     OW78590   6.354  10.266   9.287
25528SOL    HW178591   6.361  10.291   9.195
25528SOL    HW278592   6.408  10.330   9.333
25529SOL     OW78593   1.506   4.708   9.734
25529SOL    HW178594   1.500   4.787   9.680
25529SOL    HW278595   1.438   4.650   9.699
25530SOL     OW78596   8.057   6.645   6.001
25530SOL    HW178597   8.145   6.682   6.001
25530SOL    HW278598   8.061   6.574   6.065
25531SOL     OW78599   6.852   0.858   9.039
25531SOL    HW178600   6.831   0.852   8.945
25531SOL    HW278601   6.902   0.939   9.047
25532SOL     OW78602   7.334   8.103   3.348
25532SOL    HW178603   7.405   8.055   3.304
25532SOL    HW278604   7.261   8.041   3.349
25533SOL     OW78605   3.729   8.113   3.730
25533SOL    HW178606   3.746   8.032   3.778
25533SOL    HW278607   3.787   8.178   3.770
25534SOL     OW78608   8.849   0.798  10.104
25534SOL    HW178609   8.878   0.751  10.025
25534SOL    HW278610   8.914   0.775  10.171
25535SOL     OW78611   5.332   4.382   1.840
25535SOL    HW178612   5.394   4.309   1.835
25535SOL    HW278613   5.364   4.435   1.913
25536SOL     OW78614   6.900   7.971   0.050
25536SOL    HW178615   6.827   7.987  -0.009
25536SOL    HW278616   6.928   7.882   0.030
25537SOL     OW78617   6.216  10.304   3.335
25537SOL    HW178618   6.162  10.355   3.395
25537SOL    HW278619   6.293  10.359   3.319
25538SOL     OW78620   1.359   1.488   3.536
25538SOL    HW178621   1.330   1.427   3.468
25538SOL    HW278622   1.451   1.505   3.515
25539SOL     OW78623   5.250   3.370   3.793
25539SOL    HW178624   5.294   3.302   3.741
25539SOL    HW278625   5.288   3.361   3.880
25540SOL     OW78626   4.617   6.055   4.339
25540SOL    HW178627   4.592   6.015   4.422
25540SOL    HW278628   4.619   5.982   4.277
25541SOL     OW78629   2.408   0.928   7.854
25541SOL    HW178630   2.423   0.943   7.760
25541SOL    HW278631   2.488   0.960   7.896
25542SOL     OW78632   7.021   6.577   3.223
25542SOL    HW178633   6.991   6.627   3.147
25542SOL    HW278634   6.945   6.524   3.248
25543SOL     OW78635   7.428   4.553   4.288
25543SOL    HW178636   7.456   4.520   4.373
25543SOL    HW278637   7.392   4.639   4.306
25544SOL     OW78638  10.350   0.173   1.046
25544SOL    HW178639  10.271   0.141   1.090
25544SOL    HW278640  10.318   0.239   0.985
25545SOL     OW78641   0.491   1.370   4.195
25545SOL    HW178642   0.451   1.446   4.153
25545SOL    HW278643   0.418   1.326   4.239
25546SOL     OW78644   7.611   6.489   1.859
25546SOL    HW178645   7.625   6.501   1.765
25546SOL    HW278646   7.691   6.446   1.890
25547SOL     OW78647   2.378   7.327   7.819
25547SOL    HW178648   2.465   7.301   7.789
25547SOL    HW278649   2.328   7.338   7.738
25548SOL     OW78650   0.333   6.223   3.622
25548SOL    HW178651   0.410   6.218   3.566
25548SOL    HW278652   0.366   6.206   3.710
25549SOL     OW78653   8.075  10.196   1.263
25549SOL    HW178654   8.024  10.130   1.310
25549SOL    HW278655   8.060  10.175   1.170
25550SOL     OW78656   5.389   4.467   2.983
25550SOL    HW178657   5.359   4.538   2.927
25550SOL    HW278658   5.408   4.508   3.067
25551SOL     OW78659   2.083   4.389   9.140
25551SOL    HW178660   2.027   4.359   9.211
25551SOL    HW278661   2.059   4.333   9.066
25552SOL     OW78662   9.123   8.503   3.230
25552SOL    HW178663   9.202   8.448   3.234
25552SOL    HW278664   9.087   8.487   3.142
25553SOL     OW78665   4.297   0.044   5.047
25553SOL    HW178666   4.264  -0.006   5.121
25553SOL    HW278667   4.392   0.047   5.060
25554SOL     OW78668   7.276   7.816  11.100
25554SOL    HW178669   7.346   7.775  11.048
25554SOL    HW278670   7.200   7.760  11.086
25555SOL     OW78671   7.402   7.339  10.798
25555SOL    HW178672   7.495   7.363  10.805
25555SOL    HW278673   7.382   7.348  10.704
25556SOL     OW78674   9.958   3.335   2.192
25556SOL    HW178675  10.034   3.283   2.165
25556SOL    HW278676   9.982   3.371   2.277
25557SOL     OW78677   5.603   7.546   9.450
25557SOL    HW178678   5.633   7.470   9.500
25557SOL    HW278679   5.529   7.580   9.500
25558SOL     OW78680   6.401   5.338   9.125
25558SOL    HW178681   6.398   5.301   9.036
25558SOL    HW278682   6.493   5.329   9.151
25559SOL     OW78683   5.623  10.026   4.613
25559SOL    HW178684   5.630  10.117   4.642
25559SOL    HW278685   5.650  10.028   4.521
25560SOL     OW78686   3.299   3.580   7.653
25560SOL    HW178687   3.373   3.524   7.677
25560SOL    HW278688   3.340   3.661   7.622
25561SOL     OW78689   5.210   9.630   1.451
25561SOL    HW178690   5.287   9.687   1.454
25561SOL    HW278691   5.136   9.688   1.469
25562SOL     OW78692   1.784   5.136  10.486
25562SOL    HW178693   1.870   5.173  10.464
25562SOL    HW278694   1.726   5.211  10.491
25563SOL     OW78695   9.503   8.829   0.718
25563SOL    HW178696   9.541   8.840   0.805
25563SOL    HW278697   9.520   8.737   0.695
25564SOL     OW78698   4.106   4.427   1.780
25564SOL    HW178699   4.051   4.501   1.805
25564SOL    HW278700   4.066   4.393   1.699
25565SOL     OW78701   5.306   4.074   2.073
25565SOL    HW178702   5.286   3.982   2.053
25565SOL    HW278703   5.393   4.071   2.112
25566SOL     OW78704   6.822   8.856   2.371
25566SOL    HW178705   6.750   8.864   2.308
25566SOL    HW278706   6.844   8.763   2.370
25567SOL     OW78707   4.619   3.692   3.860
25567SOL    HW178708   4.536   3.671   3.903
25567SOL    HW278709   4.673   3.731   3.928
25568SOL     OW78710   2.057  11.050  10.482
25568SOL    HW178711   2.030  11.025  10.570
25568SOL    HW278712   2.125  11.116  10.495
25569SOL     OW78713   9.964   0.353   0.914
25569SOL    HW178714   9.950   0.388   0.826
25569SOL    HW278715   9.992   0.262   0.900
25570SOL     OW78716   8.355   4.461   5.959
25570SOL    HW178717   8.397   4.490   6.040
25570SOL    HW278718   8.327   4.542   5.916
25571SOL     OW78719   0.214   8.350   0.321
25571SOL    HW178720   0.123   8.331   0.343
25571SOL    HW278721   0.210   8.430   0.269
25572SOL     OW78722   7.060   7.203   2.492
25572SOL    HW178723   7.049   7.204   2.397
25572SOL    HW278724   6.971   7.198   2.526
25573SOL     OW78725  10.037   8.870   6.667
25573SOL    HW178726   9.946   8.841   6.675
25573SOL    HW278727  10.089   8.794   6.695
25574SOL     OW78728   5.841   2.031   2.563
25574SOL    HW178729   5.869   2.019   2.654
25574SOL    HW278730   5.747   2.013   2.564
25575SOL     OW78731   6.563   9.102   8.369
25575SOL    HW178732   6.535   9.165   8.303
25575SOL    HW278733   6.658   9.099   8.360
25576SOL     OW78734   0.990   8.489  10.337
25576SOL    HW178735   1.070   8.542  10.337
25576SOL    HW278736   1.017   8.405  10.298
25577SOL     OW78737   7.442   2.229   7.003
25577SOL    HW178738   7.508   2.239   6.934
25577SOL    HW278739   7.375   2.293   6.981
25578SOL     OW78740   1.694   4.413   9.580
25578SOL    HW178741   1.674   4.466   9.657
25578SOL    HW278742   1.704   4.324   9.613
25579SOL     OW78743  10.678   0.789  11.087
25579SOL    HW178744  10.750   0.760  11.030
25579SOL    HW278745  10.613   0.719  11.081
25580SOL     OW78746   5.202   9.342   8.412
25580SOL    HW178747   5.225   9.425   8.453
25580SOL    HW278748   5.247   9.344   8.327
25581SOL     OW78749   9.219   4.715   2.058
25581SOL    HW178750   9.250   4.670   1.979
25581SOL    HW278751   9.140   4.667   2.083
25582SOL     OW78752   2.035   5.624   3.005
25582SOL    HW178753   2.100   5.635   3.074
25582SOL    HW278754   1.966   5.571   3.045
25583SOL     OW78755   5.140   3.705   5.405
25583SOL    HW178756   5.074   3.689   5.472
25583SOL    HW278757   5.199   3.769   5.443
25584SOL     OW78758   9.287   0.907   1.522
25584SOL    HW178759   9.288   0.811   1.520
25584SOL    HW278760   9.200   0.929   1.556
25585SOL     OW78761   8.266   6.011   0.799
25585SOL    HW178762   8.188   6.003   0.854
25585SOL    HW278763   8.232   6.020   0.710
25586SOL     OW78764   6.823   1.359   4.671
25586SOL    HW178765   6.747   1.302   4.661
25586SOL    HW278766   6.835   1.366   4.765
25587SOL     OW78767   5.263  10.375   1.479
25587SOL    HW178768   5.260  10.428   1.558
25587SOL    HW278769   5.283  10.287   1.510
25588SOL     OW78770   1.673   3.940  10.643
25588SOL    HW178771   1.702   3.848  10.642
25588SOL    HW278772   1.629   3.952  10.559
25589SOL     OW78773   2.590   5.926  10.217
25589SOL    HW178774   2.647   5.875  10.159
25589SOL    HW278775   2.633   5.923  10.302
25590SOL     OW78776   6.408   8.926   3.053
25590SOL    HW178777   6.346   8.997   3.036
25590SOL    HW278778   6.479   8.941   2.991
25591SOL     OW78779   7.796   6.033   3.089
25591SOL    HW178780   7.786   6.019   2.994
25591SOL    HW278781   7.709   6.019   3.125
25592SOL     OW78782  10.478  10.324   1.194
25592SOL    HW178783  10.525  10.336   1.111
25592SOL    HW278784  10.522  10.383   1.255
25593SOL     OW78785   1.985   9.030  10.433
25593SOL    HW178786   2.080   9.017  10.441
25593SOL    HW278787   1.962   8.981  10.353
25594SOL     OW78788   8.479   2.937   2.360
25594SOL    HW178789   8.394   2.979   2.350
25594SOL    HW278790   8.497   2.938   2.454
25595SOL     OW78791   8.654   5.945  10.310
25595SOL    HW178792   8.655   6.038  10.289
25595SOL    HW278793   8.565   5.917  10.291
25596SOL     OW78794  11.017   4.358   5.853
25596SOL    HW178795  10.956   4.284   5.848
25596SOL    HW278796  11.066   4.354   5.771
25597SOL     OW78797   4.556   5.237   9.127
25597SOL    HW178798   4.525   5.303   9.189
25597SOL    HW278799   4.629   5.194   9.172
25598SOL     OW78800   5.035   7.157   1.210
25598SOL    HW178801   4.948   7.143   1.174
25598SOL    HW278802   5.036   7.105   1.290
25599SOL     OW78803   0.924   5.994   8.073
25599SOL    HW178804   0.968   5.937   8.009
25599SOL    HW278805   0.994   6.022   8.132
25600SOL     OW78806   8.303   0.095   9.844
25600SOL    HW178807   8.345   0.010   9.826
25600SOL    HW278808   8.353   0.157   9.791
25601SOL     OW78809   0.384  10.355   0.516
25601SOL    HW178810   0.341  10.289   0.570
25601SOL    HW278811   0.328  10.362   0.438
25602SOL     OW78812  10.936   5.056   1.756
25602SOL    HW178813  10.878   5.017   1.821
25602SOL    HW278814  10.965   4.982   1.702
25603SOL     OW78815   7.708   5.740   2.959
25603SOL    HW178816   7.697   5.790   3.040
25603SOL    HW278817   7.732   5.652   2.988
25604SOL     OW78818  10.590   6.105   9.195
25604SOL    HW178819  10.610   6.042   9.264
25604SOL    HW278820  10.500   6.085   9.169
25605SOL     OW78821   6.430   2.997   1.710
25605SOL    HW178822   6.384   3.081   1.714
25605SOL    HW278823   6.382   2.947   1.644
25606SOL     OW78824  10.053   5.511   4.560
25606SOL    HW178825   9.975   5.565   4.556
25606SOL    HW278826  10.036   5.439   4.498
25607SOL     OW78827   0.013   7.026   9.531
25607SOL    HW178828  -0.010   6.936   9.555
25607SOL    HW278829   0.079   7.052   9.595
25608SOL     OW78830   2.236   6.725   9.097
25608SOL    HW178831   2.297   6.741   9.169
25608SOL    HW278832   2.289   6.739   9.018
25609SOL     OW78833   9.252   9.657   7.974
25609SOL    HW178834   9.249   9.718   8.047
25609SOL    HW278835   9.196   9.584   8.001
25610SOL     OW78836   5.248   5.543   7.363
25610SOL    HW178837   5.189   5.504   7.427
25610SOL    HW278838   5.193   5.561   7.287
25611SOL     OW78839   2.131   0.687   1.612
25611SOL    HW178840   2.188   0.740   1.667
25611SOL    HW278841   2.046   0.730   1.617
25612SOL     OW78842   0.212   3.779   0.112
25612SOL    HW178843   0.118   3.759   0.104
25612SOL    HW278844   0.240   3.730   0.189
25613SOL     OW78845   9.454   7.354   3.125
25613SOL    HW178846   9.505   7.410   3.066
25613SOL    HW278847   9.372   7.339   3.078
25614SOL     OW78848   7.966  10.257   0.238
25614SOL    HW178849   7.894  10.199   0.213
25614SOL    HW278850   8.042  10.221   0.192
25615SOL     OW78851   9.523   6.639   3.668
25615SOL    HW178852   9.605   6.632   3.717
25615SOL    HW278853   9.550   6.642   3.576
25616SOL     OW78854   4.348   5.914   4.202
25616SOL    HW178855   4.302   5.984   4.156
25616SOL    HW278856   4.419   5.889   4.142
25617SOL     OW78857   7.996   8.038   9.309
25617SOL    HW178858   7.954   8.031   9.395
25617SOL    HW278859   7.924   8.052   9.248
25618SOL     OW78860   5.380   3.971   2.873
25618SOL    HW178861   5.377   4.046   2.932
25618SOL    HW278862   5.449   3.914   2.908
25619SOL     OW78863  10.282   7.087  10.612
25619SOL    HW178864  10.343   7.145  10.567
25619SOL    HW278865  10.275   7.122  10.700
25620SOL     OW78866   4.590   8.536   3.007
25620SOL    HW178867   4.651   8.462   3.000
25620SOL    HW278868   4.633   8.596   3.068
25621SOL     OW78869   1.850   5.142   0.810
25621SOL    HW178870   1.889   5.071   0.862
25621SOL    HW278871   1.799   5.096   0.743
25622SOL     OW78872   2.738   1.928   1.480
25622SOL    HW178873   2.687   1.889   1.408
25622SOL    HW278874   2.805   1.862   1.500
25623SOL     OW78875   7.498   3.417   1.691
25623SOL    HW178876   7.491   3.499   1.643
25623SOL    HW278877   7.489   3.441   1.783
25624SOL     OW78878  10.197   4.765   1.857
25624SOL    HW178879  10.278   4.744   1.809
25624SOL    HW278880  10.216   4.739   1.947
25625SOL     OW78881   1.839   7.156   1.693
25625SOL    HW178882   1.851   7.062   1.709
25625SOL    HW278883   1.748   7.164   1.665
25626SOL     OW78884  10.408   7.567   7.201
25626SOL    HW178885  10.358   7.565   7.119
25626SOL    HW278886  10.342   7.579   7.269
25627SOL     OW78887  10.538   5.727   6.433
25627SOL    HW178888  10.457   5.696   6.474
25627SOL    HW278889  10.553   5.813   6.471
25628SOL     OW78890   4.538   5.073   7.537
25628SOL    HW178891   4.541   4.994   7.483
25628SOL    HW278892   4.448   5.104   7.530
25629SOL     OW78893   4.457   2.366  10.146
25629SOL    HW178894   4.424   2.397  10.230
25629SOL    HW278895   4.551   2.383  10.149
25630SOL     OW78896   6.956   3.852   9.414
25630SOL    HW178897   6.916   3.887   9.334
25630SOL    HW278898   7.008   3.777   9.383
25631SOL     OW78899   1.076   7.941   8.847
25631SOL    HW178900   1.002   7.884   8.825
25631SOL    HW278901   1.127   7.890   8.910
25632SOL     OW78902   6.432   3.421   7.768
25632SOL    HW178903   6.480   3.477   7.707
25632SOL    HW278904   6.375   3.481   7.816
25633SOL     OW78905  10.638   9.116   2.089
25633SOL    HW178906  10.728   9.119   2.120
25633SOL    HW278907  10.585   9.123   2.168
25634SOL     OW78908   6.278   8.125   6.394
25634SOL    HW178909   6.347   8.173   6.348
25634SOL    HW278910   6.287   8.152   6.485
25635SOL     OW78911   4.525   1.550   1.654
25635SOL    HW178912   4.593   1.483   1.658
25635SOL    HW278913   4.482   1.535   1.570
25636SOL     OW78914   5.172   7.079   4.824
25636SOL    HW178915   5.122   7.020   4.880
25636SOL    HW278916   5.244   7.110   4.879
25637SOL     OW78917   3.524   8.741   6.059
25637SOL    HW178918   3.601   8.687   6.040
25637SOL    HW278919   3.470   8.686   6.116
25638SOL     OW78920   1.946   7.645  10.214
25638SOL    HW178921   1.886   7.573  10.192
25638SOL    HW278922   1.934   7.658  10.308
25639SOL     OW78923   3.241  10.861   4.147
25639SOL    HW178924   3.316  10.920   4.154
25639SOL    HW278925   3.203  10.881   4.061
25640SOL     OW78926   7.013   6.006   4.927
25640SOL    HW178927   6.945   5.970   4.870
25640SOL    HW278928   7.077   5.935   4.935
25641SOL     OW78929   3.007   5.032   5.136
25641SOL    HW178930   2.988   4.938   5.147
25641SOL    HW278931   2.947   5.075   5.196
25642SOL     OW78932   9.953   6.008   0.670
25642SOL    HW178933   9.869   6.047   0.693
25642SOL    HW278934   9.999   6.077   0.622
25643SOL     OW78935   5.046   5.068   0.909
25643SOL    HW178936   5.031   5.063   1.003
25643SOL    HW278937   4.971   5.023   0.870
25644SOL     OW78938   1.943   8.398   6.312
25644SOL    HW178939   1.899   8.362   6.234
25644SOL    HW278940   1.978   8.482   6.283
25645SOL     OW78941   4.673   4.145   1.395
25645SOL    HW178942   4.597   4.105   1.353
25645SOL    HW278943   4.638   4.185   1.474
25646SOL     OW78944   7.956   2.199   1.870
25646SOL    HW178945   7.956   2.170   1.778
25646SOL    HW278946   7.894   2.272   1.872
25647SOL     OW78947   4.692   7.729   1.582
25647SOL    HW178948   4.678   7.770   1.497
25647SOL    HW278949   4.627   7.659   1.585
25648SOL     OW78950   2.159   7.937   4.879
25648SOL    HW178951   2.085   7.908   4.825
25648SOL    HW278952   2.135   7.912   4.968
25649SOL     OW78953   9.062   5.991   9.153
25649SOL    HW178954   9.135   5.972   9.212
25649SOL    HW278955   9.071   6.084   9.132
25650SOL     OW78956   5.191   7.790   6.431
25650SOL    HW178957   5.192   7.829   6.343
25650SOL    HW278958   5.107   7.816   6.468
25651SOL     OW78959   9.773   1.167   4.417
25651SOL    HW178960   9.845   1.192   4.359
25651SOL    HW278961   9.766   1.072   4.407
25652SOL     OW78962   6.160   6.050   6.780
25652SOL    HW178963   6.195   6.000   6.706
25652SOL    HW278964   6.097   6.110   6.740
25653SOL     OW78965   4.573   7.632   0.637
25653SOL    HW178966   4.594   7.725   0.631
25653SOL    HW278967   4.485   7.625   0.601
25654SOL     OW78968   6.406   8.988   6.104
25654SOL    HW178969   6.391   9.004   6.197
25654SOL    HW278970   6.501   8.975   6.097
25655SOL     OW78971   8.634   5.956   2.998
25655SOL    HW178972   8.605   6.029   3.053
25655SOL    HW278973   8.703   5.993   2.943
25656SOL     OW78974   6.141   0.852   9.937
25656SOL    HW178975   6.098   0.830  10.019
25656SOL    HW278976   6.132   0.947   9.929
25657SOL     OW78977   8.541   4.703   1.650
25657SOL    HW178978   8.585   4.722   1.567
25657SOL    HW278979   8.600   4.737   1.717
25658SOL     OW78980   6.587   6.170   9.283
25658SOL    HW178981   6.514   6.110   9.299
25658SOL    HW278982   6.612   6.153   9.192
25659SOL     OW78983   2.518   1.760   0.262
25659SOL    HW178984   2.559   1.735   0.179
25659SOL    HW278985   2.533   1.685   0.319
25660SOL     OW78986   3.838   7.574   1.369
25660SOL    HW178987   3.832   7.654   1.420
25660SOL    HW278988   3.773   7.584   1.299
25661SOL     OW78989   6.521   8.461   8.605
25661SOL    HW178990   6.611   8.458   8.637
25661SOL    HW278991   6.526   8.509   8.522
25662SOL     OW78992   3.521   5.409   2.878
25662SOL    HW178993   3.506   5.503   2.875
25662SOL    HW278994   3.550   5.392   2.967
25663SOL     OW78995   0.009   5.958   8.357
25663SOL    HW178996   0.073   5.892   8.330
25663SOL    HW278997  -0.070   5.907   8.378
25664SOL     OW78998   2.777   8.988   8.097
25664SOL    HW178999   2.747   8.945   8.177
25664SOL    HW279000   2.718   8.955   8.029
25665SOL     OW79001  10.037   5.147   3.073
25665SOL    HW179002  10.094   5.217   3.104
25665SOL    HW279003  10.086   5.105   3.002
25666SOL     OW79004   8.530   7.136   4.502
25666SOL    HW179005   8.481   7.122   4.583
25666SOL    HW279006   8.603   7.192   4.527
25667SOL     OW79007   7.204   6.838   0.931
25667SOL    HW179008   7.219   6.928   0.960
25667SOL    HW279009   7.224   6.839   0.837
25668SOL     OW79010   0.388   7.109   8.940
25668SOL    HW179011   0.398   7.055   8.861
25668SOL    HW279012   0.375   7.198   8.907
25669SOL     OW79013   9.909   2.818   1.860
25669SOL    HW179014   9.888   2.905   1.826
25669SOL    HW279015   9.824   2.779   1.882
25670SOL     OW79016   9.803   5.265   4.663
25670SOL    HW179017   9.839   5.176   4.669
25670SOL    HW279018   9.733   5.267   4.728
25671SOL     OW79019   0.132   8.105   3.697
25671SOL    HW179020   0.209   8.082   3.644
25671SOL    HW279021   0.058   8.095   3.637
25672SOL     OW79022   7.691   7.188   4.080
25672SOL    HW179023   7.747   7.262   4.103
25672SOL    HW279024   7.602   7.220   4.091
25673SOL     OW79025   4.571   7.276   7.478
25673SOL    HW179026   4.582   7.195   7.428
25673SOL    HW279027   4.482   7.305   7.457
25674SOL     OW79028   2.017   0.119   2.046
25674SOL    HW179029   1.964   0.039   2.046
25674SOL    HW279030   2.070   0.113   1.966
25675SOL     OW79031   9.841   9.538  10.801
25675SOL    HW179032   9.898   9.461  10.797
25675SOL    HW279033   9.852   9.572  10.889
25676SOL     OW79034   4.514   5.085   1.855
25676SOL    HW179035   4.523   5.010   1.914
25676SOL    HW279036   4.428   5.121   1.874
25677SOL     OW79037   9.199   6.941   2.394
25677SOL    HW179038   9.161   6.896   2.318
25677SOL    HW279039   9.255   7.008   2.355
25678SOL     OW79040   4.427   7.977   1.340
25678SOL    HW179041   4.369   7.981   1.416
25678SOL    HW279042   4.405   8.054   1.288
25679SOL     OW79043   3.481   6.043   9.644
25679SOL    HW179044   3.518   6.081   9.723
25679SOL    HW279045   3.526   5.958   9.635
25680SOL     OW79046   4.253   9.493   5.403
25680SOL    HW179047   4.306   9.540   5.338
25680SOL    HW279048   4.289   9.519   5.487
25681SOL     OW79049   4.353   3.874  10.119
25681SOL    HW179050   4.393   3.815  10.055
25681SOL    HW279051   4.389   3.960  10.098
25682SOL     OW79052  10.116   4.127   9.097
25682SOL    HW179053  10.206   4.154   9.117
25682SOL    HW279054  10.123   4.080   9.014
25683SOL     OW79055   9.097   5.296   4.334
25683SOL    HW179056   9.029   5.284   4.268
25683SOL    HW279057   9.077   5.231   4.401
25684SOL     OW79058   5.275   3.275   4.802
25684SOL    HW179059   5.311   3.205   4.747
25684SOL    HW279060   5.197   3.236   4.842
25685SOL     OW79061   9.663   7.299   1.133
25685SOL    HW179062   9.705   7.301   1.047
25685SOL    HW279063   9.691   7.215   1.171
25686SOL     OW79064   2.599   5.814   0.660
25686SOL    HW179065   2.549   5.863   0.725
25686SOL    HW279066   2.632   5.738   0.708
25687SOL     OW79067   5.763   6.399   3.956
25687SOL    HW179068   5.812   6.374   4.034
25687SOL    HW279069   5.679   6.429   3.989
25688SOL     OW79070   6.129   6.287  10.289
25688SOL    HW179071   6.182   6.217  10.327
25688SOL    HW279072   6.043   6.277  10.330
25689SOL     OW79073   6.911   4.241   2.050
25689SOL    HW179074   6.842   4.258   1.986
25689SOL    HW279075   6.885   4.159   2.091
25690SOL     OW79076   7.523   8.553   9.436
25690SOL    HW179077   7.588   8.562   9.506
25690SOL    HW279078   7.575   8.545   9.356
25691SOL     OW79079  10.633   8.300   5.649
25691SOL    HW179080  10.598   8.369   5.593
25691SOL    HW279081  10.644   8.341   5.734
25692SOL     OW79082   8.227   9.433   1.919
25692SOL    HW179083   8.234   9.528   1.925
25692SOL    HW279084   8.318   9.403   1.910
25693SOL     OW79085   6.415   6.529   2.574
25693SOL    HW179086   6.470   6.607   2.579
25693SOL    HW279087   6.327   6.562   2.557
25694SOL     OW79088   3.867   5.774   3.230
25694SOL    HW179089   3.839   5.683   3.218
25694SOL    HW279090   3.822   5.803   3.309
25695SOL     OW79091   1.463   6.613   3.546
25695SOL    HW179092   1.419   6.549   3.602
25695SOL    HW279093   1.424   6.697   3.570
25696SOL     OW79094  11.048   3.959   4.035
25696SOL    HW179095  11.029   3.876   3.991
25696SOL    HW279096  11.001   4.024   3.983
25697SOL     OW79097  10.410   5.131   3.714
25697SOL    HW179098  10.379   5.043   3.737
25697SOL    HW279099  10.504   5.128   3.731
25698SOL     OW79100   2.737   9.635   1.451
25698SOL    HW179101   2.675   9.707   1.440
25698SOL    HW279102   2.808   9.672   1.503
25699SOL     OW79103   1.441   8.611   9.910
25699SOL    HW179104   1.406   8.574   9.829
25699SOL    HW279105   1.364   8.624   9.965
25700SOL     OW79106   6.514   6.866   4.263
25700SOL    HW179107   6.540   6.877   4.171
25700SOL    HW279108   6.558   6.785   4.290
25701SOL     OW79109   7.831   2.956   8.411
25701SOL    HW179110   7.881   2.904   8.474
25701SOL    HW279111   7.747   2.972   8.454
25702SOL     OW79112   6.519   7.897   2.941
25702SOL    HW179113   6.523   7.825   3.004
25702SOL    HW279114   6.610   7.928   2.935
25703SOL     OW79115   0.450   1.984   9.859
25703SOL    HW179116   0.403   1.908   9.893
25703SOL    HW279117   0.514   2.005   9.926
25704SOL     OW79118   5.392   5.555   7.924
25704SOL    HW179119   5.301   5.584   7.934
25704SOL    HW279120   5.399   5.530   7.832
25705SOL     OW79121   2.761   5.779   0.026
25705SOL    HW179122   2.681   5.827   0.043
25705SOL    HW279123   2.795   5.757   0.113
25706SOL     OW79124   7.833   9.255   6.387
25706SOL    HW179125   7.806   9.317   6.454
25706SOL    HW279126   7.884   9.307   6.325
25707SOL     OW79127   0.041   2.218   1.076
25707SOL    HW179128   0.105   2.174   1.020
25707SOL    HW279129   0.002   2.284   1.019
25708SOL     OW79130   7.396   6.379   5.193
25708SOL    HW179131   7.308   6.413   5.179
25708SOL    HW279132   7.439   6.388   5.108
25709SOL     OW79133   9.027   4.541   3.345
25709SOL    HW179134   9.090   4.501   3.405
25709SOL    HW279135   9.075   4.613   3.304
25710SOL     OW79136   0.514   4.421   1.741
25710SOL    HW179137   0.574   4.493   1.725
25710SOL    HW279138   0.543   4.383   1.824
25711SOL     OW79139   5.247   6.379   1.511
25711SOL    HW179140   5.223   6.324   1.585
25711SOL    HW279141   5.189   6.350   1.440
25712SOL     OW79142   7.943   3.845   1.973
25712SOL    HW179143   7.888   3.922   1.985
25712SOL    HW279144   8.029   3.871   2.005
25713SOL     OW79145   1.402   6.079   2.379
25713SOL    HW179146   1.333   6.124   2.330
25713SOL    HW279147   1.476   6.139   2.377
25714SOL     OW79148   7.820   9.318   7.787
25714SOL    HW179149   7.913   9.294   7.787
25714SOL    HW279150   7.819   9.410   7.813
25715SOL     OW79151   6.501   9.348   5.408
25715SOL    HW179152   6.561   9.421   5.422
25715SOL    HW279153   6.416   9.380   5.439
25716SOL     OW79154  10.651   4.573   6.762
25716SOL    HW179155  10.690   4.495   6.722
25716SOL    HW279156  10.557   4.559   6.754
25717SOL     OW79157   6.068   2.266   4.717
25717SOL    HW179158   6.139   2.260   4.781
25717SOL    HW279159   5.992   2.230   4.762
25718SOL     OW79160   0.768   1.152   8.059
25718SOL    HW179161   0.838   1.184   8.116
25718SOL    HW279162   0.777   1.056   8.061
25719SOL     OW79163   2.152   9.200   6.083
25719SOL    HW179164   2.183   9.203   5.992
25719SOL    HW279165   2.216   9.251   6.132
25720SOL     OW79166   2.792  10.841   6.128
25720SOL    HW179167   2.785  10.936   6.131
25720SOL    HW279168   2.718  10.810   6.180
25721SOL     OW79169   3.871  10.220   6.686
25721SOL    HW179170   3.877  10.145   6.746
25721SOL    HW279171   3.798  10.198   6.627
25722SOL     OW79172   5.554   8.900   0.271
25722SOL    HW179173   5.498   8.976   0.283
25722SOL    HW279174   5.544   8.850   0.352
25723SOL     OW79175  10.521   7.695  10.606
25723SOL    HW179176  10.595   7.750  10.632
25723SOL    HW279177  10.472   7.680  10.687
25724SOL     OW79178   3.062   7.899   1.354
25724SOL    HW179179   3.041   7.953   1.278
25724SOL    HW279180   3.113   7.826   1.318
25725SOL     OW79181   2.740   2.883   6.897
25725SOL    HW179182   2.647   2.874   6.919
25725SOL    HW279183   2.757   2.810   6.837
25726SOL     OW79184   5.844   4.420   9.056
25726SOL    HW179185   5.771   4.481   9.059
25726SOL    HW279186   5.829   4.369   8.976
25727SOL     OW79187  10.198  10.099   4.504
25727SOL    HW179188  10.122  10.110   4.560
25727SOL    HW279189  10.192  10.171   4.441
25728SOL     OW79190  10.251   3.639   2.807
25728SOL    HW179191  10.327   3.591   2.840
25728SOL    HW279192  10.190   3.570   2.780
25729SOL     OW79193   0.751   8.671  10.157
25729SOL    HW179194   0.703   8.744  10.194
25729SOL    HW279195   0.841   8.684  10.185
25730SOL     OW79196   7.133  10.625   8.696
25730SOL    HW179197   7.160  10.674   8.618
25730SOL    HW279198   7.121  10.535   8.665
25731SOL     OW79199   1.986   8.470   3.852
25731SOL    HW179200   1.953   8.391   3.809
25731SOL    HW279201   1.986   8.448   3.945
25732SOL     OW79202   1.604   8.239   2.872
25732SOL    HW179203   1.630   8.331   2.873
25732SOL    HW279204   1.607   8.214   2.779
25733SOL     OW79205   5.883   4.063   4.242
25733SOL    HW179206   5.846   4.146   4.213
25733SOL    HW279207   5.816   3.998   4.221
25734SOL     OW79208   9.739   4.228   7.602
25734SOL    HW179209   9.746   4.280   7.681
25734SOL    HW279210   9.811   4.258   7.547
25735SOL     OW79211   5.230   5.083   5.074
25735SOL    HW179212   5.162   5.019   5.050
25735SOL    HW279213   5.191   5.168   5.055
25736SOL     OW79214   4.958  10.012   2.785
25736SOL    HW179215   4.878  10.053   2.815
25736SOL    HW279216   5.028  10.063   2.825
25737SOL     OW79217   1.909   9.322   9.524
25737SOL    HW179218   1.962   9.396   9.494
25737SOL    HW279219   1.865   9.354   9.602
25738SOL     OW79220   5.695   0.410   8.403
25738SOL    HW179221   5.719   0.465   8.477
25738SOL    HW279222   5.634   0.346   8.439
25739SOL     OW79223   2.675   4.062   4.280
25739SOL    HW179224   2.622   4.021   4.348
25739SOL    HW279225   2.636   4.148   4.268
25740SOL     OW79226   3.919   5.407   8.539
25740SOL    HW179227   3.947   5.412   8.447
25740SOL    HW279228   3.864   5.484   8.551
25741SOL     OW79229   4.144   1.157   9.022
25741SOL    HW179230   4.138   1.190   8.932
25741SOL    HW279231   4.233   1.121   9.028
25742SOL     OW79232   0.832   5.764   1.626
25742SOL    HW179233   0.861   5.797   1.711
25742SOL    HW279234   0.814   5.671   1.641
25743SOL     OW79235  11.081   6.023   0.720
25743SOL    HW179236  11.070   6.017   0.625
25743SOL    HW279237  11.170   5.990   0.735
25744SOL     OW79238   2.897   4.489   0.156
25744SOL    HW179239   2.975   4.494   0.211
25744SOL    HW279240   2.886   4.577   0.121
25745SOL     OW79241   8.119  10.087   2.631
25745SOL    HW179242   8.130  10.065   2.723
25745SOL    HW279243   8.160  10.173   2.621
25746SOL     OW79244   8.714   6.574   7.571
25746SOL    HW179245   8.742   6.629   7.644
25746SOL    HW279246   8.668   6.501   7.612
25747SOL     OW79247   5.829   4.358   0.195
25747SOL    HW179248   5.785   4.274   0.180
25747SOL    HW279249   5.918   4.334   0.220
25748SOL     OW79250   3.132   3.426   0.693
25748SOL    HW179251   3.071   3.412   0.620
25748SOL    HW279252   3.196   3.488   0.659
25749SOL     OW79253   5.178   7.514   3.707
25749SOL    HW179254   5.116   7.506   3.779
25749SOL    HW279255   5.190   7.608   3.696
25750SOL     OW79256   5.550   7.512   1.262
25750SOL    HW179257   5.476   7.544   1.210
25750SOL    HW279258   5.627   7.548   1.218
25751SOL     OW79259   5.467   6.722   1.223
25751SOL    HW179260   5.483   6.742   1.315
25751SOL    HW279261   5.533   6.773   1.175
25752SOL     OW79262   5.387   9.595   3.933
25752SOL    HW179263   5.480   9.573   3.926
25752SOL    HW279264   5.370   9.596   4.027
25753SOL     OW79265   6.549   5.011   7.907
25753SOL    HW179266   6.553   5.002   7.811
25753SOL    HW279267   6.609   4.944   7.939
25754SOL     OW79268   6.204   7.841   6.267
25754SOL    HW179269   6.207   7.924   6.313
25754SOL    HW279270   6.172   7.778   6.332
25755SOL     OW79271   9.299   1.016   4.701
25755SOL    HW179272   9.331   1.019   4.791
25755SOL    HW279273   9.337   0.936   4.665
25756SOL     OW79274   7.032   9.177   5.077
25756SOL    HW179275   7.126   9.195   5.077
25756SOL    HW279276   6.991   9.262   5.066
25757SOL     OW79277   7.942   4.089   7.471
25757SOL    HW179278   7.900   4.072   7.386
25757SOL    HW279279   8.027   4.128   7.448
25758SOL     OW79280   5.321   7.857   7.420
25758SOL    HW179281   5.354   7.769   7.401
25758SOL    HW279282   5.227   7.845   7.435
25759SOL     OW79283   5.702   6.757   4.115
25759SOL    HW179284   5.635   6.823   4.097
25759SOL    HW279285   5.716   6.761   4.209
25760SOL     OW79286   6.897   8.193   6.822
25760SOL    HW179287   6.810   8.230   6.831
25760SOL    HW279288   6.899   8.120   6.884
25761SOL     OW79289   2.389   8.818   3.163
25761SOL    HW179290   2.298   8.788   3.165
25761SOL    HW279291   2.440   8.739   3.184
25762SOL     OW79292  10.301   6.776   4.297
25762SOL    HW179293  10.232   6.836   4.270
25762SOL    HW279294  10.363   6.830   4.345
25763SOL     OW79295   7.794   5.438   1.241
25763SOL    HW179296   7.830   5.469   1.324
25763SOL    HW279297   7.776   5.345   1.256
25764SOL     OW79298   8.603   9.950   8.739
25764SOL    HW179299   8.525   9.991   8.775
25764SOL    HW279300   8.674   9.980   8.795
25765SOL     OW79301   2.315   3.492   1.536
25765SOL    HW179302   2.373   3.532   1.471
25765SOL    HW279303   2.261   3.431   1.485
25766SOL     OW79304  10.439   3.567   0.698
25766SOL    HW179305  10.475   3.640   0.648
25766SOL    HW279306  10.421   3.500   0.631
25767SOL     OW79307   8.671   4.621   4.250
25767SOL    HW179308   8.666   4.593   4.341
25767SOL    HW279309   8.763   4.642   4.236
25768SOL     OW79310   4.815   1.575   8.618
25768SOL    HW179311   4.877   1.502   8.628
25768SOL    HW279312   4.752   1.563   8.689
25769SOL     OW79313   9.374   0.460   2.919
25769SOL    HW179314   9.421   0.383   2.951
25769SOL    HW279315   9.312   0.425   2.855
25770SOL     OW79316   8.298  10.672   6.766
25770SOL    HW179317   8.267  10.751   6.810
25770SOL    HW279318   8.321  10.612   6.837
25771SOL     OW79319   3.980   9.662   3.642
25771SOL    HW179320   4.043   9.591   3.627
25771SOL    HW279321   4.034   9.740   3.652
25772SOL     OW79322   2.753   4.370   7.284
25772SOL    HW179323   2.733   4.405   7.370
25772SOL    HW279324   2.729   4.440   7.223
25773SOL     OW79325   4.191   4.507  10.735
25773SOL    HW179326   4.193   4.587  10.682
25773SOL    HW279327   4.132   4.448  10.687
25774SOL     OW79328   6.516   4.082   3.593
25774SOL    HW179329   6.523   4.106   3.685
25774SOL    HW279330   6.554   3.994   3.588
25775SOL     OW79331   0.616   7.277   2.795
25775SOL    HW179332   0.569   7.285   2.878
25775SOL    HW279333   0.682   7.209   2.811
25776SOL     OW79334  10.579   4.747   7.228
25776SOL    HW179335  10.603   4.779   7.315
25776SOL    HW279336  10.654   4.694   7.200
25777SOL     OW79337   7.444   5.646   8.490
25777SOL    HW179338   7.513   5.634   8.425
25777SOL    HW279339   7.368   5.674   8.439
25778SOL     OW79340   4.839   5.560  10.653
25778SOL    HW179341   4.772   5.555  10.721
25778SOL    HW279342   4.798   5.519  10.576
25779SOL     OW79343   5.654   4.546   6.123
25779SOL    HW179344   5.720   4.566   6.056
25779SOL    HW279345   5.574   4.530   6.073
25780SOL     OW79346   5.562   9.720   9.105
25780SOL    HW179347   5.526   9.805   9.129
25780SOL    HW279348   5.488   9.660   9.113
25781SOL     OW79349   6.079   0.030   7.052
25781SOL    HW179350   6.090  -0.065   7.044
25781SOL    HW279351   6.063   0.044   7.145
25782SOL     OW79352   5.190   6.964   1.059
25782SOL    HW179353   5.155   7.034   1.113
25782SOL    HW279354   5.182   6.996   0.969
25783SOL     OW79355   6.873   9.657   0.760
25783SOL    HW179356   6.959   9.635   0.723
25783SOL    HW279357   6.848   9.578   0.809
25784SOL     OW79358   9.454   4.197   9.616
25784SOL    HW179359   9.463   4.253   9.539
25784SOL    HW279360   9.406   4.120   9.584
25785SOL     OW79361   2.017   8.172   9.398
25785SOL    HW179362   1.962   8.245   9.370
25785SOL    HW279363   2.104   8.192   9.363
25786SOL     OW79364   9.693   6.001   3.997
25786SOL    HW179365   9.650   5.918   4.019
25786SOL    HW279366   9.675   6.058   4.071
25787SOL     OW79367   3.110   4.908   7.042
25787SOL    HW179368   3.076   4.993   7.015
25787SOL    HW279369   3.169   4.927   7.114
25788SOL     OW79370  10.013   6.935   2.018
25788SOL    HW179371  10.064   6.905   1.943
25788SOL    HW279372   9.922   6.924   1.991
25789SOL     OW79373   6.904   7.410   7.417
25789SOL    HW179374   6.986   7.459   7.411
25789SOL    HW279375   6.899   7.363   7.333
25790SOL     OW79376  10.054   2.961   0.304
25790SOL    HW179377   9.981   2.939   0.246
25790SOL    HW279378  10.128   2.911   0.269
25791SOL     OW79379   6.464   7.340   4.747
25791SOL    HW179380   6.477   7.246   4.733
25791SOL    HW279381   6.493   7.381   4.665
25792SOL     OW79382   6.545   3.187   7.851
25792SOL    HW179383   6.507   3.263   7.807
25792SOL    HW279384   6.625   3.220   7.891
25793SOL     OW79385   3.538   5.658   6.338
25793SOL    HW179386   3.579   5.623   6.417
25793SOL    HW279387   3.611   5.695   6.288
25794SOL     OW79388   5.594   7.964   8.076
25794SOL    HW179389   5.656   7.906   8.031
25794SOL    HW279390   5.571   7.917   8.156
25795SOL     OW79391   7.563   7.256   4.984
25795SOL    HW179392   7.645   7.306   4.985
25795SOL    HW279393   7.553   7.224   5.073
25796SOL     OW79394   9.455   9.328   4.461
25796SOL    HW179395   9.485   9.262   4.524
25796SOL    HW279396   9.516   9.320   4.387
25797SOL     OW79397   4.160   6.377   2.952
25797SOL    HW179398   4.102   6.410   2.883
25797SOL    HW279399   4.148   6.437   3.025
25798SOL     OW79400  10.617   0.541   4.215
25798SOL    HW179401  10.656   0.575   4.134
25798SOL    HW279402  10.553   0.476   4.185
25799SOL     OW79403   7.518  10.587   2.564
25799SOL    HW179404   7.531  10.493   2.554
25799SOL    HW279405   7.466  10.612   2.487
25800SOL     OW79406   8.685   4.895   2.297
25800SOL    HW179407   8.767   4.887   2.247
25800SOL    HW279408   8.680   4.987   2.320
25801SOL     OW79409   7.981   5.077   1.294
25801SOL    HW179410   8.049   5.011   1.280
25801SOL    HW279411   7.989   5.135   1.218
25802SOL     OW79412   7.854   1.255   0.574
25802SOL    HW179413   7.797   1.255   0.651
25802SOL    HW279414   7.899   1.170   0.577
25803SOL     OW79415   3.523   5.053   7.858
25803SOL    HW179416   3.613   5.086   7.858
25803SOL    HW279417   3.469   5.130   7.842
25804SOL     OW79418   5.165   7.667   1.294
25804SOL    HW179419   5.189   7.588   1.343
25804SOL    HW279420   5.078   7.690   1.327
25805SOL     OW79421   4.915   4.314   3.316
25805SOL    HW179422   4.979   4.368   3.270
25805SOL    HW279423   4.888   4.249   3.250
25806SOL     OW79424   9.660   9.396   4.219
25806SOL    HW179425   9.700   9.430   4.139
25806SOL    HW279426   9.570   9.376   4.194
25807SOL     OW79427   5.773   8.801   9.323
25807SOL    HW179428   5.811   8.722   9.283
25807SOL    HW279429   5.819   8.810   9.406
25808SOL     OW79430   1.875   5.907   3.811
25808SOL    HW179431   1.897   5.955   3.890
25808SOL    HW279432   1.800   5.954   3.774
25809SOL     OW79433   5.673   7.869   4.090
25809SOL    HW179434   5.722   7.914   4.021
25809SOL    HW279435   5.654   7.782   4.053
25810SOL     OW79436   1.912   1.125   1.821
25810SOL    HW179437   1.927   1.093   1.732
25810SOL    HW279438   1.926   1.219   1.815
25811SOL     OW79439  10.338   2.733  10.527
25811SOL    HW179440  10.347   2.706  10.618
25811SOL    HW279441  10.365   2.825  10.526
25812SOL     OW79442   0.827   5.963   3.318
25812SOL    HW179443   0.909   5.934   3.276
25812SOL    HW279444   0.764   5.894   3.297
25813SOL     OW79445   9.038   1.735   2.124
25813SOL    HW179446   8.954   1.728   2.078
25813SOL    HW279447   9.093   1.669   2.082
25814SOL     OW79448  10.853   1.177   3.442
25814SOL    HW179449  10.819   1.128   3.366
25814SOL    HW279450  10.942   1.142   3.454
25815SOL     OW79451   5.267   7.357   5.665
25815SOL    HW179452   5.175   7.356   5.690
25815SOL    HW279453   5.314   7.360   5.748
25816SOL     OW79454   3.144   2.789   5.867
25816SOL    HW179455   3.142   2.787   5.962
25816SOL    HW279456   3.090   2.714   5.840
25817SOL     OW79457   3.017   7.519   5.512
25817SOL    HW179458   3.064   7.437   5.497
25817SOL    HW279459   2.960   7.501   5.587
25818SOL     OW79460   4.791   9.038  10.824
25818SOL    HW179461   4.736   9.012  10.898
25818SOL    HW279462   4.842   9.112  10.856
25819SOL     OW79463   0.058   9.505   2.511
25819SOL    HW179464   0.099   9.490   2.596
25819SOL    HW279465  -0.005   9.575   2.527
25820SOL     OW79466   4.945   9.147   6.865
25820SOL    HW179467   4.865   9.198   6.875
25820SOL    HW279468   5.008   9.208   6.827
25821SOL     OW79469   7.420   9.997   4.804
25821SOL    HW179470   7.404  10.090   4.788
25821SOL    HW279471   7.333   9.957   4.801
25822SOL     OW79472   8.036   8.620   4.922
25822SOL    HW179473   8.071   8.690   4.977
25822SOL    HW279474   8.049   8.540   4.973
25823SOL     OW79475   8.070   4.782   3.699
25823SOL    HW179476   8.158   4.769   3.664
25823SOL    HW279477   8.080   4.775   3.794
25824SOL     OW79478   1.933   8.223   5.562
25824SOL    HW179479   1.889   8.175   5.632
25824SOL    HW279480   1.892   8.309   5.563
25825SOL     OW79481   5.691   8.860   4.300
25825SOL    HW179482   5.782   8.885   4.285
25825SOL    HW279483   5.696   8.771   4.336
25826SOL     OW79484   3.729   6.556   5.075
25826SOL    HW179485   3.651   6.567   5.128
25826SOL    HW279486   3.801   6.552   5.138
25827SOL     OW79487   0.320   5.339   2.495
25827SOL    HW179488   0.370   5.281   2.552
25827SOL    HW279489   0.372   5.345   2.415
25828SOL     OW79490   1.922   2.350   3.603
25828SOL    HW179491   1.870   2.430   3.600
25828SOL    HW279492   1.862   2.283   3.635
25829SOL     OW79493   6.849   3.242   7.868
25829SOL    HW179494   6.836   3.218   7.959
25829SOL    HW279495   6.933   3.288   7.867
25830SOL     OW79496   4.208  10.264   2.753
25830SOL    HW179497   4.148  10.281   2.825
25830SOL    HW279498   4.293  10.252   2.795
25831SOL     OW79499   8.404   6.314   2.017
25831SOL    HW179500   8.309   6.312   2.027
25831SOL    HW279501   8.419   6.284   1.927
25832SOL     OW79502  10.275   8.141   9.001
25832SOL    HW179503  10.328   8.077   9.049
25832SOL    HW279504  10.272   8.218   9.057
25833SOL     OW79505   5.483   1.997   7.991
25833SOL    HW179506   5.539   1.925   8.020
25833SOL    HW279507   5.541   2.073   7.988
25834SOL     OW79508   8.786   8.840   1.194
25834SOL    HW179509   8.826   8.771   1.140
25834SOL    HW279510   8.803   8.921   1.146
25835SOL     OW79511   9.881   9.585   9.675
25835SOL    HW179512   9.817   9.631   9.621
25835SOL    HW279513   9.832   9.512   9.713
25836SOL     OW79514   3.321  10.094   5.656
25836SOL    HW179515   3.387  10.163   5.661
25836SOL    HW279516   3.363  10.017   5.694
25837SOL     OW79517   3.170   0.049   7.160
25837SOL    HW179518   3.228  -0.002   7.103
25837SOL    HW279519   3.087   0.002   7.157
25838SOL     OW79520   1.574   7.104   4.327
25838SOL    HW179521   1.639   7.033   4.332
25838SOL    HW279522   1.497   7.069   4.372
25839SOL     OW79523  10.797   9.817   0.903
25839SOL    HW179524  10.860   9.846   0.837
25839SOL    HW279525  10.748   9.746   0.860
25840SOL     OW79526   1.009   3.194   7.782
25840SOL    HW179527   0.929   3.221   7.827
25840SOL    HW279528   0.987   3.109   7.744
25841SOL     OW79529   5.650   6.627   0.463
25841SOL    HW179530   5.664   6.703   0.518
25841SOL    HW279531   5.556   6.611   0.465
25842SOL     OW79532   9.342   5.475   3.616
25842SOL    HW179533   9.355   5.387   3.579
25842SOL    HW279534   9.287   5.519   3.552
25843SOL     OW79535   7.390   8.824   7.316
25843SOL    HW179536   7.431   8.835   7.230
25843SOL    HW279537   7.325   8.755   7.303
25844SOL     OW79538   3.287   4.933   6.010
25844SOL    HW179539   3.335   4.936   6.093
25844SOL    HW279540   3.232   5.011   6.011
25845SOL     OW79541   1.921  10.702   8.323
25845SOL    HW179542   1.995  10.700   8.384
25845SOL    HW279543   1.906  10.795   8.306
25846SOL     OW79544   7.123   7.871   5.358
25846SOL    HW179545   7.106   7.792   5.306
25846SOL    HW279546   7.196   7.914   5.313
25847SOL     OW79547   1.428   6.833   1.131
25847SOL    HW179548   1.383   6.752   1.106
25847SOL    HW279549   1.507   6.803   1.177
25848SOL     OW79550   4.174   6.956   4.758
25848SOL    HW179551   4.182   6.978   4.665
25848SOL    HW279552   4.243   7.007   4.800
25849SOL     OW79553  10.540   7.467   2.954
25849SOL    HW179554  10.512   7.465   3.045
25849SOL    HW279555  10.553   7.375   2.931
25850SOL     OW79556   4.161   7.096   1.794
25850SOL    HW179557   4.167   7.147   1.874
25850SOL    HW279558   4.106   7.021   1.817
25851SOL     OW79559   4.184   6.145   8.688
25851SOL    HW179560   4.164   6.205   8.616
25851SOL    HW279561   4.276   6.121   8.674
25852SOL     OW79562   2.072   7.590   8.818
25852SOL    HW179563   2.090   7.671   8.866
25852SOL    HW279564   1.977   7.584   8.817
25853SOL     OW79565   9.618   8.040   9.475
25853SOL    HW179566   9.584   7.956   9.443
25853SOL    HW279567   9.542   8.098   9.478
25854SOL     OW79568   6.739   5.014   5.057
25854SOL    HW179569   6.747   4.988   5.148
25854SOL    HW279570   6.802   5.085   5.046
25855SOL     OW79571   2.753   6.008   4.188
25855SOL    HW179572   2.807   5.970   4.257
25855SOL    HW279573   2.809   6.074   4.148
25856SOL     OW79574   1.490  10.084   1.921
25856SOL    HW179575   1.441  10.012   1.961
25856SOL    HW279576   1.581  10.053   1.919
25857SOL     OW79577   7.647   1.268   0.775
25857SOL    HW179578   7.556   1.296   0.768
25857SOL    HW279579   7.691   1.338   0.824
25858SOL     OW79580   7.466   1.901   9.723
25858SOL    HW179581   7.511   1.952   9.790
25858SOL    HW279582   7.526   1.828   9.704
25859SOL     OW79583   7.224   7.024   2.566
25859SOL    HW179584   7.185   6.937   2.552
25859SOL    HW279585   7.152   7.085   2.553
25860SOL     OW79586   1.964  10.850   4.261
25860SOL    HW179587   2.032  10.806   4.312
25860SOL    HW279588   1.951  10.934   4.305
25861SOL     OW79589   6.842   9.891   0.610
25861SOL    HW179590   6.785   9.874   0.535
25861SOL    HW279591   6.838   9.810   0.661
25862SOL     OW79592   1.192   2.743   4.595
25862SOL    HW179593   1.259   2.680   4.566
25862SOL    HW279594   1.173   2.795   4.517
25863SOL     OW79595  10.036   7.602   6.471
25863SOL    HW179596  10.024   7.670   6.537
25863SOL    HW279597   9.990   7.635   6.394
25864SOL     OW79598   9.045   8.742   2.549
25864SOL    HW179599   9.140   8.752   2.537
25864SOL    HW279600   9.019   8.818   2.600
25865SOL     OW79601   6.354   3.183   3.999
25865SOL    HW179602   6.398   3.235   4.066
25865SOL    HW279603   6.339   3.098   4.040
25866SOL     OW79604   6.026   7.886   7.815
25866SOL    HW179605   6.097   7.935   7.856
25866SOL    HW279606   5.997   7.942   7.743
25867SOL     OW79607   8.635  10.009   6.716
25867SOL    HW179608   8.609  10.087   6.765
25867SOL    HW279609   8.593   9.936   6.762
25868SOL     OW79610   6.799  10.215   7.326
25868SOL    HW179611   6.868  10.272   7.293
25868SOL    HW279612   6.843  10.132   7.344
25869SOL     OW79613   5.195   7.536   1.709
25869SOL    HW179614   5.212   7.455   1.758
25869SOL    HW279615   5.100   7.548   1.715
25870SOL     OW79616   8.286   9.508   6.426
25870SOL    HW179617   8.237   9.540   6.501
25870SOL    HW279618   8.272   9.573   6.357
25871SOL     OW79619  10.427  10.768   5.723
25871SOL    HW179620  10.362  10.724   5.777
25871SOL    HW279621  10.492  10.801   5.785
25872SOL     OW79622   5.461   4.493   6.675
25872SOL    HW179623   5.484   4.539   6.594
25872SOL    HW279624   5.368   4.511   6.687
25873SOL     OW79625   3.023   3.220   6.077
25873SOL    HW179626   3.106   3.214   6.125
25873SOL    HW279627   2.961   3.169   6.129
25874SOL     OW79628   7.759   6.858   4.283
25874SOL    HW179629   7.820   6.801   4.329
25874SOL    HW279630   7.719   6.911   4.351
25875SOL     OW79631   4.132   2.417   4.193
25875SOL    HW179632   4.065   2.396   4.128
25875SOL    HW279633   4.199   2.350   4.180
25876SOL     OW79634   6.601   1.511   3.450
25876SOL    HW179635   6.696   1.497   3.449
25876SOL    HW279636   6.566   1.431   3.489
25877SOL     OW79637   5.757   8.324   0.634
25877SOL    HW179638   5.758   8.370   0.550
25877SOL    HW279639   5.784   8.234   0.612
25878SOL     OW79640   9.662   4.886   3.995
25878SOL    HW179641   9.619   4.927   4.070
25878SOL    HW279642   9.699   4.959   3.945
25879SOL     OW79643   8.426   7.879   7.181
25879SOL    HW179644   8.428   7.923   7.266
25879SOL    HW279645   8.458   7.790   7.199
25880SOL     OW79646   6.578   4.938   6.349
25880SOL    HW179647   6.510   4.915   6.286
25880SOL    HW279648   6.536   4.929   6.434
25881SOL     OW79649   9.016   5.186   0.743
25881SOL    HW179650   8.941   5.141   0.704
25881SOL    HW279651   9.076   5.115   0.767
25882SOL     OW79652   5.528   7.105   5.632
25882SOL    HW179653   5.530   7.026   5.578
25882SOL    HW279654   5.615   7.109   5.671
25883SOL     OW79655   2.632   8.107   2.632
25883SOL    HW179656   2.716   8.144   2.661
25883SOL    HW279657   2.574   8.182   2.623
25884SOL     OW79658   6.448   2.757   3.910
25884SOL    HW179659   6.458   2.802   3.993
25884SOL    HW279660   6.416   2.670   3.933
25885SOL     OW79661   0.075   7.789   9.196
25885SOL    HW179662   0.118   7.825   9.118
25885SOL    HW279663  -0.012   7.829   9.196
25886SOL     OW79664  10.631   8.712   0.858
25886SOL    HW179665  10.701   8.651   0.833
25886SOL    HW279666  10.672   8.798   0.854
25887SOL     OW79667   9.251   4.641   3.816
25887SOL    HW179668   9.265   4.547   3.800
25887SOL    HW279669   9.336   4.681   3.799
25888SOL     OW79670   2.440   4.044  10.598
25888SOL    HW179671   2.428   4.118  10.539
25888SOL    HW279672   2.531   4.018  10.585
25889SOL     OW79673   6.476   4.426   9.773
25889SOL    HW179674   6.474   4.330   9.772
25889SOL    HW279675   6.552   4.449   9.719
25890SOL     OW79676   4.318   1.990   5.667
25890SOL    HW179677   4.305   2.084   5.664
25890SOL    HW279678   4.413   1.979   5.665
25891SOL     OW79679   7.139   4.997   3.232
25891SOL    HW179680   7.106   5.084   3.212
25891SOL    HW279681   7.116   4.983   3.324
25892SOL     OW79682  10.499  10.667   6.192
25892SOL    HW179683  10.518  10.742   6.136
25892SOL    HW279684  10.498  10.703   6.280
25893SOL     OW79685   8.275  10.041  10.276
25893SOL    HW179686   8.266  10.115  10.335
25893SOL    HW279687   8.198  10.046  10.219
25894SOL     OW79688   4.419   6.574   6.015
25894SOL    HW179689   4.392   6.619   6.095
25894SOL    HW279690   4.447   6.487   6.044
25895SOL     OW79691   1.625   6.181   4.747
25895SOL    HW179692   1.669   6.205   4.828
25895SOL    HW279693   1.645   6.088   4.735
25896SOL     OW79694   7.460   1.157   2.784
25896SOL    HW179695   7.541   1.184   2.739
25896SOL    HW279696   7.483   1.156   2.877
25897SOL     OW79697   5.396   8.387   3.167
25897SOL    HW179698   5.377   8.385   3.073
25897SOL    HW279699   5.478   8.436   3.174
25898SOL     OW79700   4.130   4.529   3.233
25898SOL    HW179701   4.219   4.527   3.197
25898SOL    HW279702   4.134   4.594   3.303
25899SOL     OW79703   1.519   1.288   4.872
25899SOL    HW179704   1.537   1.323   4.959
25899SOL    HW279705   1.442   1.232   4.884
25900SOL     OW79706   1.462   5.389   6.303
25900SOL    HW179707   1.450   5.303   6.262
25900SOL    HW279708   1.390   5.442   6.268
25901SOL     OW79709   6.973   9.951  10.108
25901SOL    HW179710   7.025   9.882  10.066
25901SOL    HW279711   6.926   9.906  10.178
25902SOL     OW79712   5.561  10.875   1.523
25902SOL    HW179713   5.567  10.842   1.612
25902SOL    HW279714   5.501  10.949   1.528
25903SOL     OW79715   1.376   5.184   6.921
25903SOL    HW179716   1.326   5.157   6.844
25903SOL    HW279717   1.351   5.121   6.989
25904SOL     OW79718   2.341   5.356   2.036
25904SOL    HW179719   2.436   5.347   2.032
25904SOL    HW279720   2.316   5.308   2.115
25905SOL     OW79721   9.749   6.519   1.732
25905SOL    HW179722   9.742   6.438   1.681
25905SOL    HW279723   9.788   6.492   1.815
25906SOL     OW79724   7.545   5.146   2.436
25906SOL    HW179725   7.525   5.229   2.393
25906SOL    HW279726   7.640   5.135   2.425
25907SOL     OW79727   6.036   1.787   4.101
25907SOL    HW179728   5.969   1.851   4.124
25907SOL    HW279729   5.987   1.709   4.075
25908SOL     OW79730   3.250   0.100   0.047
25908SOL    HW179731   3.166   0.062   0.073
25908SOL    HW279732   3.268   0.166   0.114
25909SOL     OW79733   9.642   7.422   5.583
25909SOL    HW179734   9.714   7.360   5.596
25909SOL    HW279735   9.569   7.367   5.553
25910SOL     OW79736   6.774   2.571  10.343
25910SOL    HW179737   6.712   2.502  10.366
25910SOL    HW279738   6.833   2.530  10.280
25911SOL     OW79739  10.703   7.694   3.194
25911SOL    HW179740  10.614   7.727   3.203
25911SOL    HW279741  10.712   7.629   3.264
25912SOL     OW79742   7.704   4.433   7.743
25912SOL    HW179743   7.715   4.364   7.808
25912SOL    HW279744   7.793   4.456   7.717
25913SOL     OW79745   3.329   8.148   1.343
25913SOL    HW179746   3.417   8.145   1.304
25913SOL    HW279747   3.270   8.128   1.270
25914SOL     OW79748   9.940   3.698   9.155
25914SOL    HW179749  10.002   3.625   9.154
25914SOL    HW279750   9.909   3.703   9.064
25915SOL     OW79751   7.904   1.140   1.792
25915SOL    HW179752   7.864   1.190   1.721
25915SOL    HW279753   7.912   1.051   1.757
25916SOL     OW79754   5.101   7.107   6.068
25916SOL    HW179755   5.111   7.080   5.976
25916SOL    HW279756   5.057   7.033   6.110
25917SOL     OW79757   5.721   5.764   6.068
25917SOL    HW179758   5.716   5.766   6.163
25917SOL    HW279759   5.786   5.696   6.049
25918SOL     OW79760   5.749   8.466   4.101
25918SOL    HW179761   5.782   8.425   4.181
25918SOL    HW279762   5.806   8.432   4.032
25919SOL     OW79763   7.672  10.958   0.020
25919SOL    HW179764   7.603  10.897   0.046
25919SOL    HW279765   7.742  10.943   0.084
25920SOL     OW79766   8.019   4.816   7.583
25920SOL    HW179767   8.079   4.849   7.516
25920SOL    HW279768   7.932   4.824   7.543
25921SOL     OW79769  10.929   7.280   4.622
25921SOL    HW179770  10.892   7.300   4.536
25921SOL    HW279771  10.886   7.341   4.681
25922SOL     OW79772   5.232   8.098   6.710
25922SOL    HW179773   5.322   8.103   6.678
25922SOL    HW279774   5.233   8.025   6.772
25923SOL     OW79775   6.499   9.304   1.578
25923SOL    HW179776   6.563   9.332   1.643
25923SOL    HW279777   6.424   9.361   1.591
25924SOL     OW79778   3.290  10.345  10.553
25924SOL    HW179779   3.351  10.271  10.562
25924SOL    HW279780   3.216  10.321  10.608
25925SOL     OW79781   9.930   8.448   7.462
25925SOL    HW179782  10.008   8.439   7.406
25925SOL    HW279783   9.857   8.430   7.403
25926SOL     OW79784   0.038   4.384   3.528
25926SOL    HW179785   0.101   4.347   3.466
25926SOL    HW279786   0.072   4.471   3.548
25927SOL     OW79787   0.323   2.230   2.414
25927SOL    HW179788   0.327   2.140   2.381
25927SOL    HW279789   0.278   2.222   2.498
25928SOL     OW79790  10.512   5.586   1.962
25928SOL    HW179791  10.526   5.564   1.870
25928SOL    HW279792  10.420   5.612   1.966
25929SOL     OW79793  10.478   1.766   4.429
25929SOL    HW179794  10.452   1.733   4.515
25929SOL    HW279795  10.423   1.842   4.414
25930SOL     OW79796  10.824   0.772   7.767
25930SOL    HW179797  10.893   0.710   7.790
25930SOL    HW279798  10.784   0.734   7.688
25931SOL     OW79799  10.551   8.279   3.384
25931SOL    HW179800  10.535   8.288   3.290
25931SOL    HW279801  10.538   8.186   3.402
25932SOL     OW79802  10.487   0.683   3.034
25932SOL    HW179803  10.559   0.636   2.992
25932SOL    HW279804  10.458   0.746   2.968
25933SOL     OW79805  10.871   4.585   8.069
25933SOL    HW179806  10.856   4.666   8.020
25933SOL    HW279807  10.928   4.533   8.012
25934SOL     OW79808   1.034   0.431   9.844
25934SOL    HW179809   1.002   0.456   9.757
25934SOL    HW279810   1.081   0.349   9.829
25935SOL     OW79811   8.204   1.194   9.478
25935SOL    HW179812   8.221   1.235   9.563
25935SOL    HW279813   8.277   1.133   9.466
25936SOL     OW79814   2.133   2.250   4.775
25936SOL    HW179815   2.124   2.157   4.798
25936SOL    HW279816   2.093   2.257   4.688
25937SOL     OW79817  10.880   4.717   6.552
25937SOL    HW179818  10.795   4.673   6.549
25937SOL    HW279819  10.867   4.789   6.612
25938SOL     OW79820   3.074   3.974   4.914
25938SOL    HW179821   3.086   4.057   4.959
25938SOL    HW279822   3.074   3.909   4.984
25939SOL     OW79823   3.489   6.028   8.321
25939SOL    HW179824   3.446   5.948   8.352
25939SOL    HW279825   3.419   6.078   8.280
25940SOL     OW79826   7.122   7.840   2.500
25940SOL    HW179827   7.186   7.911   2.506
25940SOL    HW279828   7.146   7.780   2.571
25941SOL     OW79829   9.824   4.982   6.657
25941SOL    HW179830   9.815   5.005   6.564
25941SOL    HW279831   9.917   4.996   6.676
25942SOL     OW79832   9.359   3.238   2.363
25942SOL    HW179833   9.293   3.306   2.374
25942SOL    HW279834   9.328   3.187   2.288
25943SOL     OW79835   1.540   4.420   8.533
25943SOL    HW179836   1.561   4.422   8.626
25943SOL    HW279837   1.569   4.505   8.499
25944SOL     OW79838   2.482  11.088   3.892
25944SOL    HW179839   2.473  11.112   3.984
25944SOL    HW279840   2.437  11.004   3.884
25945SOL     OW79841   4.192   4.761   5.727
25945SOL    HW179842   4.269   4.796   5.683
25945SOL    HW279843   4.158   4.834   5.778
25946SOL     OW79844   4.893   9.880   0.283
25946SOL    HW179845   4.976   9.836   0.263
25946SOL    HW279846   4.913   9.973   0.278
25947SOL     OW79847   2.255   1.319   4.746
25947SOL    HW179848   2.331   1.266   4.719
25947SOL    HW279849   2.293   1.398   4.783
25948SOL     OW79850   9.972   9.628   5.464
25948SOL    HW179851   9.996   9.535   5.463
25948SOL    HW279852   9.985   9.656   5.373
25949SOL     OW79853   2.465   5.429   5.410
25949SOL    HW179854   2.505   5.476   5.483
25949SOL    HW279855   2.381   5.472   5.396
25950SOL     OW79856   3.195   6.124   9.099
25950SOL    HW179857   3.130   6.152   9.163
25950SOL    HW279858   3.179   6.178   9.022
25951SOL     OW79859   9.831   8.803   0.670
25951SOL    HW179860   9.806   8.746   0.597
25951SOL    HW279861   9.859   8.743   0.739
25952SOL     OW79862   2.700   1.627   6.111
25952SOL    HW179863   2.628   1.625   6.174
25952SOL    HW279864   2.668   1.576   6.036
25953SOL     OW79865   7.939   8.403   2.259
25953SOL    HW179866   8.006   8.470   2.265
25953SOL    HW279867   7.966   8.350   2.183
25954SOL     OW79868   3.929  10.722   4.049
25954SOL    HW179869   3.980  10.801   4.070
25954SOL    HW279870   3.995  10.657   4.026
25955SOL     OW79871   6.789   3.020   3.747
25955SOL    HW179872   6.784   3.114   3.730
25955SOL    HW279873   6.746   3.009   3.832
25956SOL     OW79874   5.494   1.227   4.182
25956SOL    HW179875   5.419   1.282   4.203
25956SOL    HW279876   5.496   1.161   4.251
25957SOL     OW79877   1.411   7.037  10.535
25957SOL    HW179878   1.390   6.965  10.595
25957SOL    HW279879   1.344   7.031  10.466
25958SOL     OW79880   5.721   5.286   3.170
25958SOL    HW179881   5.777   5.248   3.237
25958SOL    HW279882   5.696   5.371   3.204
25959SOL     OW79883   0.206   6.886   1.540
25959SOL    HW179884   0.300   6.874   1.553
25959SOL    HW279885   0.198   6.973   1.501
25960SOL     OW79886   9.619   3.235   2.297
25960SOL    HW179887   9.647   3.144   2.310
25960SOL    HW279888   9.527   3.236   2.324
25961SOL     OW79889   2.530   4.241   6.590
25961SOL    HW179890   2.506   4.213   6.678
25961SOL    HW279891   2.593   4.175   6.560
25962SOL     OW79892   5.803   1.937   4.206
25962SOL    HW179893   5.779   2.003   4.270
25962SOL    HW279894   5.745   1.863   4.224
25963SOL     OW79895   2.787  10.001  10.398
25963SOL    HW179896   2.827  10.043  10.322
25963SOL    HW279897   2.853  10.008  10.466
25964SOL     OW79898   8.244   8.477   6.750
25964SOL    HW179899   8.239   8.474   6.845
25964SOL    HW279900   8.187   8.406   6.721
25965SOL     OW79901   8.900   0.343   9.853
25965SOL    HW179902   8.985   0.353   9.810
25965SOL    HW279903   8.851   0.420   9.826
25966SOL     OW79904   9.413   7.008   5.707
25966SOL    HW179905   9.493   6.960   5.731
25966SOL    HW279906   9.371   6.952   5.642
25967SOL     OW79907   4.581   8.938   3.547
25967SOL    HW179908   4.566   8.844   3.536
25967SOL    HW279909   4.495   8.978   3.532
25968SOL     OW79910   5.717   4.411   3.964
25968SOL    HW179911   5.773   4.376   3.894
25968SOL    HW279912   5.752   4.498   3.981
25969SOL     OW79913   0.645   5.460   0.696
25969SOL    HW179914   0.675   5.511   0.621
25969SOL    HW279915   0.652   5.519   0.771
25970SOL     OW79916   7.166   9.680  10.977
25970SOL    HW179917   7.112   9.689  11.055
25970SOL    HW279918   7.253   9.659  11.010
25971SOL     OW79919   8.168   6.445   3.738
25971SOL    HW179920   8.096   6.507   3.724
25971SOL    HW279921   8.160   6.383   3.665
25972SOL     OW79922   4.940   5.663   3.613
25972SOL    HW179923   4.974   5.583   3.654
25972SOL    HW279924   4.900   5.632   3.531
25973SOL     OW79925   3.994   1.715   2.823
25973SOL    HW179926   4.080   1.689   2.789
25973SOL    HW279927   4.007   1.721   2.917
25974SOL     OW79928   6.555   9.643   0.884
25974SOL    HW179929   6.632   9.652   0.828
25974SOL    HW279930   6.497   9.714   0.856
25975SOL     OW79931   4.635   5.541   5.306
25975SOL    HW179932   4.604   5.631   5.304
25975SOL    HW279933   4.708   5.542   5.368
25976SOL     OW79934  10.120  10.143   8.503
25976SOL    HW179935  10.190  10.079   8.487
25976SOL    HW279936  10.134  10.210   8.436
25977SOL     OW79937   8.917   5.968   6.841
25977SOL    HW179938   8.922   5.923   6.756
25977SOL    HW279939   8.833   5.940   6.877
25978SOL     OW79940   2.215   7.886   3.080
25978SOL    HW179941   2.148   7.852   3.139
25978SOL    HW279942   2.283   7.818   3.079
25979SOL     OW79943   3.200   4.729   1.286
25979SOL    HW179944   3.108   4.710   1.304
25979SOL    HW279945   3.210   4.712   1.192
25980SOL     OW79946  10.240   4.925   7.245
25980SOL    HW179947  10.230   4.864   7.318
25980SOL    HW279948  10.329   4.909   7.213
25981SOL     OW79949   9.414   7.074   4.925
25981SOL    HW179950   9.349   7.135   4.958
25981SOL    HW279951   9.372   7.034   4.848
25982SOL     OW79952   1.183   6.711   1.234
25982SOL    HW179953   1.228   6.686   1.315
25982SOL    HW279954   1.196   6.805   1.227
25983SOL     OW79955   7.135   3.937   5.664
25983SOL    HW179956   7.121   4.029   5.644
25983SOL    HW279957   7.216   3.914   5.618
25984SOL     OW79958   0.769   7.353   2.310
25984SOL    HW179959   0.823   7.432   2.313
25984SOL    HW279960   0.703   7.367   2.377
25985SOL     OW79961   8.073   0.028   5.868
25985SOL    HW179962   8.018  -0.049   5.882
25985SOL    HW279963   8.119   0.010   5.786
25986SOL     OW79964   0.923  10.010  10.325
25986SOL    HW179965   0.977   9.986  10.400
25986SOL    HW279966   0.985  10.045  10.261
25987SOL     OW79967   8.845   2.434   4.191
25987SOL    HW179968   8.886   2.366   4.245
25987SOL    HW279969   8.894   2.514   4.211
25988SOL     OW79970   8.799   4.348   4.790
25988SOL    HW179971   8.714   4.313   4.763
25988SOL    HW279972   8.863   4.300   4.737
25989SOL     OW79973   7.023   9.028   6.284
25989SOL    HW179974   6.976   9.012   6.366
25989SOL    HW279975   6.961   9.077   6.230
25990SOL     OW79976   5.784   5.411   0.716
25990SOL    HW179977   5.833   5.493   0.710
25990SOL    HW279978   5.815   5.359   0.642
25991SOL     OW79979   6.651   5.955   7.000
25991SOL    HW179980   6.684   5.898   6.930
25991SOL    HW279981   6.689   6.040   6.980
25992SOL     OW79982   4.716   6.591   0.100
25992SOL    HW179983   4.684   6.590   0.010
25992SOL    HW279984   4.680   6.511   0.140
25993SOL     OW79985   9.445   5.282   0.787
25993SOL    HW179986   9.356   5.296   0.756
25993SOL    HW279987   9.497   5.348   0.741
25994SOL     OW79988   6.143   3.322   9.794
25994SOL    HW179989   6.098   3.337   9.877
25994SOL    HW279990   6.123   3.231   9.772
25995SOL     OW79991   4.919   3.935   2.277
25995SOL    HW179992   4.923   3.963   2.185
25995SOL    HW279993   4.967   4.002   2.324
25996SOL     OW79994   6.224   3.391   8.450
25996SOL    HW179995   6.236   3.393   8.545
25996SOL    HW279996   6.288   3.453   8.416
25997SOL     OW79997   3.102  10.526   7.624
25997SOL    HW179998   3.075  10.617   7.610
25997SOL    HW279999   3.084  10.482   7.540
25998SOL     OW80000   5.609   3.181   5.590
25998SOL    HW180001   5.613   3.179   5.494
25998SOL    HW280002   5.680   3.240   5.616
25999SOL     OW80003   8.155  10.327   6.861
25999SOL    HW180004   8.197  10.404   6.899
25999SOL    HW280005   8.139  10.351   6.769
26000SOL     OW80006   8.107   2.747   5.954
26000SOL    HW180007   8.050   2.816   5.987
26000SOL    HW280008   8.052   2.668   5.953
26001SOL     OW80009   1.853   8.461   8.364
26001SOL    HW180010   1.840   8.459   8.269
26001SOL    HW280011   1.774   8.420   8.400
26002SOL     OW80012   5.765   4.727   4.611
26002SOL    HW180013   5.845   4.767   4.577
26002SOL    HW280014   5.718   4.799   4.652
26003SOL     OW80015   4.125   3.895   8.908
26003SOL    HW180016   4.060   3.875   8.975
26003SOL    HW280017   4.105   3.984   8.881
26004SOL     OW80018   9.789   4.768   5.684
26004SOL    HW180019   9.877   4.790   5.653
26004SOL    HW280020   9.754   4.850   5.719
26005SOL     OW80021   1.403   3.096   2.552
26005SOL    HW180022   1.399   3.083   2.457
26005SOL    HW280023   1.488   3.138   2.566
26006SOL     OW80024   1.523   9.474  10.134
26006SOL    HW180025   1.559   9.397  10.090
26006SOL    HW280026   1.457   9.439  10.194
26007SOL     OW80027   7.042   5.722   6.034
26007SOL    HW180028   7.000   5.638   6.053
26007SOL    HW280029   7.085   5.709   5.949
26008SOL     OW80030   9.818   5.629   3.703
26008SOL    HW180031   9.865   5.550   3.675
26008SOL    HW280032   9.885   5.683   3.745
26009SOL     OW80033   9.200   8.840   7.213
26009SOL    HW180034   9.152   8.757   7.210
26009SOL    HW280035   9.287   8.816   7.247
26010SOL     OW80036   4.578   3.870  10.801
26010SOL    HW180037   4.497   3.845  10.845
26010SOL    HW280038   4.626   3.922  10.865
26011SOL     OW80039   7.176   5.387   6.971
26011SOL    HW180040   7.248   5.330   6.943
26011SOL    HW280041   7.188   5.467   6.920
26012SOL     OW80042   8.039  10.848   3.062
26012SOL    HW180043   7.975  10.810   3.001
26012SOL    HW280044   8.064  10.775   3.119
26013SOL     OW80045   0.900  10.088   8.249
26013SOL    HW180046   0.844  10.140   8.191
26013SOL    HW280047   0.986  10.129   8.242
26014SOL     OW80048   9.648   6.853   0.511
26014SOL    HW180049   9.620   6.804   0.588
26014SOL    HW280050   9.737   6.881   0.531
26015SOL     OW80051   2.351  10.235   7.948
26015SOL    HW180052   2.301  10.243   8.029
26015SOL    HW280053   2.287  10.207   7.882
26016SOL     OW80054   8.286   4.269   8.329
26016SOL    HW180055   8.228   4.332   8.286
26016SOL    HW280056   8.340   4.322   8.387
26017SOL     OW80057   9.062   6.605   9.573
26017SOL    HW180058   9.105   6.537   9.521
26017SOL    HW280059   9.090   6.687   9.532
26018SOL     OW80060   3.855   4.527   6.731
26018SOL    HW180061   3.891   4.596   6.787
26018SOL    HW280062   3.927   4.504   6.671
26019SOL     OW80063   1.712   9.660   4.395
26019SOL    HW180064   1.638   9.645   4.337
26019SOL    HW280065   1.674   9.698   4.474
26020SOL     OW80066   9.908   6.307   4.119
26020SOL    HW180067   9.839   6.241   4.128
26020SOL    HW280068   9.969   6.269   4.056
26021SOL     OW80069  10.709   1.623   6.355
26021SOL    HW180070  10.678   1.534   6.337
26021SOL    HW280071  10.768   1.613   6.430
26022SOL     OW80072   5.789  10.139   5.945
26022SOL    HW180073   5.835  10.129   5.861
26022SOL    HW280074   5.762  10.231   5.947
26023SOL     OW80075  10.567   4.164   6.031
26023SOL    HW180076  10.554   4.072   6.008
26023SOL    HW280077  10.482   4.204   6.017
26024SOL     OW80078   6.917   2.832  10.807
26024SOL    HW180079   6.867   2.844  10.726
26024SOL    HW280080   6.922   2.737  10.817
26025SOL     OW80081   2.527   8.702  11.086
26025SOL    HW180082   2.501   8.627  11.032
26025SOL    HW280083   2.621   8.688  11.100
26026SOL     OW80084   8.239   5.842   0.223
26026SOL    HW180085   8.176   5.784   0.179
26026SOL    HW280086   8.320   5.831   0.173
26027SOL     OW80087   8.702   3.524   7.271
26027SOL    HW180088   8.611   3.495   7.267
26027SOL    HW280089   8.713   3.556   7.360
26028SOL     OW80090   8.284   8.826   6.271
26028SOL    HW180091   8.317   8.784   6.350
26028SOL    HW280092   8.353   8.888   6.246
26029SOL     OW80093   7.410   3.128   9.694
26029SOL    HW180094   7.360   3.135   9.612
26029SOL    HW280095   7.488   3.181   9.679
26030SOL     OW80096   7.545   7.602   4.960
26030SOL    HW180097   7.563   7.692   4.935
26030SOL    HW280098   7.622   7.553   4.930
26031SOL     OW80099   0.365   6.028   4.748
26031SOL    HW180100   0.330   6.027   4.658
26031SOL    HW280101   0.311   6.092   4.794
26032SOL     OW80102   5.029   8.107   9.279
26032SOL    HW180103   5.101   8.046   9.297
26032SOL    HW280104   5.034   8.122   9.184
26033SOL     OW80105   9.363   1.319   4.418
26033SOL    HW180106   9.414   1.336   4.497
26033SOL    HW280107   9.383   1.392   4.360
26034SOL     OW80108   8.099   9.809   0.589
26034SOL    HW180109   8.061   9.836   0.672
26034SOL    HW280110   8.073   9.717   0.580
26035SOL     OW80111   9.350   1.319   8.749
26035SOL    HW180112   9.332   1.413   8.750
26035SOL    HW280113   9.355   1.296   8.656
26036SOL     OW80114   4.845   0.246   2.863
26036SOL    HW180115   4.877   0.304   2.794
26036SOL    HW280116   4.910   0.175   2.866
26037SOL     OW80117   0.393   1.864   7.564
26037SOL    HW180118   0.363   1.861   7.473
26037SOL    HW280119   0.351   1.788   7.605
26038SOL     OW80120   1.168   3.433   7.270
26038SOL    HW180121   1.263   3.444   7.258
26038SOL    HW280122   1.130   3.467   7.189
26039SOL     OW80123   5.943   4.091   9.692
26039SOL    HW180124   5.898   4.125   9.769
26039SOL    HW280125   5.988   4.166   9.654
26040SOL     OW80126   3.441   4.697   2.586
26040SOL    HW180127   3.479   4.748   2.657
26040SOL    HW280128   3.513   4.641   2.556
26041SOL     OW80129   8.781   6.314  10.498
26041SOL    HW180130   8.863   6.342  10.538
26041SOL    HW280131   8.782   6.218  10.505
26042SOL     OW80132   0.012   4.837   5.020
26042SOL    HW180133   0.039   4.777   5.089
26042SOL    HW280134  -0.072   4.802   4.989
26043SOL     OW80135   7.341   1.560   6.588
26043SOL    HW180136   7.275   1.510   6.539
26043SOL    HW280137   7.386   1.494   6.641
26044SOL     OW80138   5.373   6.319   5.732
26044SOL    HW180139   5.311   6.319   5.659
26044SOL    HW280140   5.359   6.402   5.776
26045SOL     OW80141   7.509   6.825   6.837
26045SOL    HW180142   7.439   6.863   6.784
26045SOL    HW280143   7.498   6.865   6.923
26046SOL     OW80144   6.090   4.650   6.469
26046SOL    HW180145   6.119   4.739   6.450
26046SOL    HW280146   6.164   4.610   6.515
26047SOL     OW80147  10.137   1.997   1.780
26047SOL    HW180148  10.142   1.939   1.703
26047SOL    HW280149  10.228   2.014   1.803
26048SOL     OW80150   7.115   7.115   0.999
26048SOL    HW180151   7.071   7.074   0.924
26048SOL    HW280152   7.082   7.205   1.000
26049SOL     OW80153   8.656   8.328   5.252
26049SOL    HW180154   8.687   8.310   5.163
26049SOL    HW280155   8.610   8.411   5.244
26050SOL     OW80156   4.938  11.005   3.501
26050SOL    HW180157   4.857  11.030   3.457
26050SOL    HW280158   4.972  10.933   3.447
26051SOL     OW80159   2.683   3.257  10.611
26051SOL    HW180160   2.748   3.326  10.598
26051SOL    HW280161   2.709   3.214  10.692
26052SOL     OW80162   5.773   8.424   8.569
26052SOL    HW180163   5.729   8.359   8.624
26052SOL    HW280164   5.775   8.384   8.482
26053SOL     OW80165   3.217   1.655  10.747
26053SOL    HW180166   3.298   1.663  10.696
26053SOL    HW280167   3.226   1.719  10.817
26054SOL     OW80168   0.877   2.967   5.774
26054SOL    HW180169   0.912   2.888   5.815
26054SOL    HW280170   0.811   2.999   5.835
26055SOL     OW80171  10.390   8.399   5.481
26055SOL    HW180172  10.300   8.422   5.459
26055SOL    HW280173  10.440   8.422   5.403
26056SOL     OW80174   5.826  10.906   1.798
26056SOL    HW180175   5.859  10.887   1.710
26056SOL    HW280176   5.734  10.882   1.794
26057SOL     OW80177   7.743   4.497  11.008
26057SOL    HW180178   7.772   4.465  10.922
26057SOL    HW280179   7.803   4.569  11.028
26058SOL     OW80180   8.081   9.582   8.900
26058SOL    HW180181   8.000   9.536   8.875
26058SOL    HW280182   8.133   9.584   8.819
26059SOL     OW80183   8.145   2.764   9.596
26059SOL    HW180184   8.058   2.792   9.568
26059SOL    HW280185   8.178   2.712   9.523
26060SOL     OW80186   6.687   1.487   5.761
26060SOL    HW180187   6.693   1.566   5.815
26060SOL    HW280188   6.594   1.464   5.760
26061SOL     OW80189   6.938  10.307   5.508
26061SOL    HW180190   6.870  10.341   5.450
26061SOL    HW280191   6.976  10.384   5.549
26062SOL     OW80192   6.872   6.711   6.205
26062SOL    HW180193   6.922   6.791   6.217
26062SOL    HW280194   6.922   6.661   6.140
26063SOL     OW80195   2.297   1.977   4.595
26063SOL    HW180196   2.293   1.962   4.689
26063SOL    HW280197   2.336   2.064   4.585
26064SOL     OW80198   7.840   2.642   8.645
26064SOL    HW180199   7.862   2.553   8.615
26064SOL    HW280200   7.899   2.699   8.595
26065SOL     OW80201   5.981   8.960   3.664
26065SOL    HW180202   5.925   9.029   3.629
26065SOL    HW280203   6.070   8.990   3.646
26066SOL     OW80204   8.026   6.327   7.160
26066SOL    HW180205   7.946   6.327   7.213
26066SOL    HW280206   8.022   6.409   7.111
26067SOL     OW80207   5.875   4.129   4.702
26067SOL    HW180208   5.815   4.055   4.693
26067SOL    HW280209   5.934   4.121   4.627
26068SOL     OW80210   0.929  10.127   1.723
26068SOL    HW180211   0.909  10.036   1.699
26068SOL    HW280212   0.890  10.179   1.653
26069SOL     OW80213   8.000   4.626   6.238
26069SOL    HW180214   7.937   4.618   6.310
26069SOL    HW280215   7.987   4.546   6.186
26070SOL     OW80216  10.167   5.884   7.782
26070SOL    HW180217  10.082   5.841   7.778
26070SOL    HW280218  10.191   5.898   7.690
26071SOL     OW80219   0.185   3.199   3.456
26071SOL    HW180220   0.137   3.167   3.379
26071SOL    HW280221   0.182   3.126   3.518
26072SOL     OW80222   5.065  10.322   6.832
26072SOL    HW180223   5.024  10.341   6.748
26072SOL    HW280224   5.159  10.328   6.814
26073SOL     OW80225   4.416  10.466   4.843
26073SOL    HW180226   4.413  10.559   4.866
26073SOL    HW280227   4.352  10.425   4.901
26074SOL     OW80228   9.521   6.377   4.104
26074SOL    HW180229   9.483   6.418   4.181
26074SOL    HW280230   9.589   6.319   4.138
26075SOL     OW80231   7.241   8.610   8.115
26075SOL    HW180232   7.299   8.673   8.072
26075SOL    HW280233   7.159   8.615   8.065
26076SOL     OW80234   4.659   9.058   0.901
26076SOL    HW180235   4.711   9.006   0.963
26076SOL    HW280236   4.715   9.132   0.878
26077SOL     OW80237   6.595   1.956   9.640
26077SOL    HW180238   6.617   1.908   9.719
26077SOL    HW280239   6.533   2.023   9.668
26078SOL     OW80240   8.172   8.683   5.564
26078SOL    HW180241   8.095   8.722   5.523
26078SOL    HW280242   8.222   8.757   5.597
26079SOL     OW80243   5.813   5.403   7.444
26079SOL    HW180244   5.905   5.402   7.472
26079SOL    HW280245   5.771   5.335   7.497
26080SOL     OW80246   9.821   6.162   1.645
26080SOL    HW180247   9.886   6.177   1.576
26080SOL    HW280248   9.870   6.117   1.714
26081SOL     OW80249   5.548   6.201   5.907
26081SOL    HW180250   5.635   6.235   5.886
26081SOL    HW280251   5.491   6.239   5.840
26082SOL     OW80252   7.192   5.467   8.261
26082SOL    HW180253   7.229   5.555   8.264
26082SOL    HW280254   7.164   5.449   8.350
26083SOL     OW80255   4.874   6.184   2.826
26083SOL    HW180256   4.888   6.133   2.746
26083SOL    HW280257   4.960   6.185   2.868
26084SOL     OW80258   0.132   5.282   3.446
26084SOL    HW180259   0.180   5.320   3.372
26084SOL    HW280260   0.040   5.299   3.425
26085SOL     OW80261   8.430   3.697   5.613
26085SOL    HW180262   8.418   3.680   5.706
26085SOL    HW280263   8.372   3.771   5.594
26086SOL     OW80264   2.076   5.412   7.100
26086SOL    HW180265   2.145   5.478   7.111
26086SOL    HW280266   2.001   5.460   7.066
26087SOL     OW80267   4.150   4.216  10.005
26087SOL    HW180268   4.244   4.223   9.990
26087SOL    HW280269   4.126   4.300  10.044
26088SOL     OW80270   9.389  10.902   1.060
26088SOL    HW180271   9.384  10.847   1.137
26088SOL    HW280272   9.483  10.914   1.045
26089SOL     OW80273   8.379   3.316   2.828
26089SOL    HW180274   8.378   3.286   2.919
26089SOL    HW280275   8.288   3.336   2.808
26090SOL     OW80276   4.248   4.146   5.139
26090SOL    HW180277   4.220   4.174   5.226
26090SOL    HW280278   4.174   4.095   5.105
26091SOL     OW80279   9.109   1.825  10.808
26091SOL    HW180280   9.182   1.866  10.853
26091SOL    HW280281   9.088   1.885  10.736
26092SOL     OW80282   8.259   1.845   9.874
26092SOL    HW180283   8.206   1.838   9.794
26092SOL    HW280284   8.278   1.754   9.897
26093SOL     OW80285   0.578   5.467   8.109
26093SOL    HW180286   0.618   5.423   8.034
26093SOL    HW280287   0.516   5.528   8.070
26094SOL     OW80288   5.837   5.061   8.795
26094SOL    HW180289   5.886   5.140   8.773
26094SOL    HW280290   5.824   5.017   8.711
26095SOL     OW80291   7.456   0.465   6.477
26095SOL    HW180292   7.456   0.555   6.508
26095SOL    HW280293   7.367   0.451   6.445
26096SOL     OW80294   4.782   8.703  10.291
26096SOL    HW180295   4.708   8.675  10.344
26096SOL    HW280296   4.858   8.695  10.349
26097SOL     OW80297   6.840   7.987   9.227
26097SOL    HW180298   6.859   8.043   9.301
26097SOL    HW280299   6.922   7.984   9.177
26098SOL     OW80300   0.533   6.449   0.876
26098SOL    HW180301   0.593   6.420   0.944
26098SOL    HW280302   0.566   6.407   0.796
26099SOL     OW80303   2.382   2.344   8.543
26099SOL    HW180304   2.349   2.331   8.632
26099SOL    HW280305   2.313   2.308   8.487
26100SOL     OW80306   9.149   9.717   0.944
26100SOL    HW180307   9.243   9.721   0.927
26100SOL    HW280308   9.117   9.804   0.921
26101SOL     OW80309   3.234   1.502   1.840
26101SOL    HW180310   3.302   1.490   1.906
26101SOL    HW280311   3.152   1.485   1.886
26102SOL     OW80312   4.181   5.626   7.192
26102SOL    HW180313   4.141   5.712   7.200
26102SOL    HW280314   4.273   5.639   7.217
26103SOL     OW80315   5.679  10.973   6.614
26103SOL    HW180316   5.627  10.906   6.659
26103SOL    HW280317   5.759  10.928   6.588
26104SOL     OW80318   8.391   5.403   5.907
26104SOL    HW180319   8.314   5.445   5.946
26104SOL    HW280320   8.442   5.372   5.982
26105SOL     OW80321   8.316   4.414   7.244
26105SOL    HW180322   8.246   4.419   7.179
26105SOL    HW280323   8.310   4.495   7.293
26106SOL     OW80324   4.941   6.928   9.223
26106SOL    HW180325   4.866   6.869   9.233
26106SOL    HW280326   4.997   6.908   9.298
26107SOL     OW80327   7.160   6.534  10.736
26107SOL    HW180328   7.125   6.551  10.648
26107SOL    HW280329   7.228   6.467  10.722
26108SOL     OW80330  10.629   0.634   7.039
26108SOL    HW180331  10.666   0.606   7.122
26108SOL    HW280332  10.536   0.611   7.045
26109SOL     OW80333   7.823   9.636   6.244
26109SOL    HW180334   7.826   9.555   6.295
26109SOL    HW280335   7.858   9.610   6.158
26110SOL     OW80336   6.726   5.790   7.723
26110SOL    HW180337   6.745   5.715   7.780
26110SOL    HW280338   6.694   5.858   7.782
26111SOL     OW80339   2.851   1.069   2.198
26111SOL    HW180340   2.840   1.060   2.292
26111SOL    HW280341   2.919   1.005   2.176
26112SOL     OW80342   8.980  10.269   3.097
26112SOL    HW180343   8.931  10.201   3.049
26112SOL    HW280344   9.034  10.311   3.030
26113SOL     OW80345   0.111   2.569   5.422
26113SOL    HW180346   0.090   2.628   5.350
26113SOL    HW280347   0.027   2.554   5.466
26114SOL     OW80348   6.945   9.374   5.269
26114SOL    HW180349   6.878   9.311   5.243
26114SOL    HW280350   6.897   9.455   5.284
26115SOL     OW80351   3.455   4.957   6.272
26115SOL    HW180352   3.434   4.959   6.365
26115SOL    HW280353   3.551   4.954   6.269
26116SOL     OW80354   7.681   3.314  10.683
26116SOL    HW180355   7.759   3.258  10.679
26116SOL    HW280356   7.716   3.403  10.680
26117SOL     OW80357   4.621   4.893   0.463
26117SOL    HW180358   4.623   4.945   0.383
26117SOL    HW280359   4.541   4.841   0.455
26118SOL     OW80360   6.956   4.186   9.473
26118SOL    HW180361   6.988   4.228   9.553
26118SOL    HW280362   6.947   4.093   9.496
26119SOL     OW80363   6.243   7.250   8.027
26119SOL    HW180364   6.247   7.154   8.030
26119SOL    HW280365   6.334   7.277   8.013
26120SOL     OW80366   4.551   3.224   8.686
26120SOL    HW180367   4.617   3.254   8.748
26120SOL    HW280368   4.511   3.148   8.728
26121SOL     OW80369   3.555   0.251   0.091
26121SOL    HW180370   3.479   0.250   0.149
26121SOL    HW280371   3.540   0.178   0.031
26122SOL     OW80372   0.941   3.270   8.189
26122SOL    HW180373   1.035   3.253   8.185
26122SOL    HW280374   0.924   3.290   8.281
26123SOL     OW80375  10.802   5.553   4.144
26123SOL    HW180376  10.731   5.494   4.118
26123SOL    HW280377  10.866   5.545   4.073
26124SOL     OW80378   8.506   1.657   7.794
26124SOL    HW180379   8.554   1.740   7.789
26124SOL    HW280380   8.418   1.681   7.823
26125SOL     OW80381   6.503   8.003   5.262
26125SOL    HW180382   6.576   7.947   5.287
26125SOL    HW280383   6.483   8.054   5.340
26126SOL     OW80384   7.599   4.270   9.333
26126SOL    HW180385   7.533   4.202   9.318
26126SOL    HW280386   7.643   4.244   9.414
26127SOL     OW80387   3.808   1.296   3.447
26127SOL    HW180388   3.871   1.248   3.393
26127SOL    HW280389   3.862   1.355   3.498
26128SOL     OW80390   6.959   6.310   6.302
26128SOL    HW180391   7.006   6.391   6.320
26128SOL    HW280392   6.965   6.299   6.207
26129SOL     OW80393   8.914   6.507  10.329
26129SOL    HW180394   8.849   6.464  10.385
26129SOL    HW280395   8.915   6.598  10.359
26130SOL     OW80396   7.218  10.285   6.608
26130SOL    HW180397   7.146  10.318   6.661
26130SOL    HW280398   7.279  10.358   6.601
26131SOL     OW80399   9.136   8.381   6.649
26131SOL    HW180400   9.176   8.423   6.573
26131SOL    HW280401   9.197   8.398   6.720
26132SOL     OW80402   5.057   4.400   1.829
26132SOL    HW180403   5.009   4.477   1.858
26132SOL    HW280404   5.149   4.421   1.844
26133SOL     OW80405   4.348   9.372   5.853
26133SOL    HW180406   4.294   9.335   5.783
26133SOL    HW280407   4.304   9.453   5.877
26134SOL     OW80408   2.238   5.812   9.775
26134SOL    HW180409   2.323   5.844   9.746
26134SOL    HW280410   2.200   5.770   9.697
26135SOL     OW80411   7.264   4.477   0.521
26135SOL    HW180412   7.180   4.459   0.562
26135SOL    HW280413   7.249   4.462   0.427
26136SOL     OW80414   9.377   7.028   0.938
26136SOL    HW180415   9.320   7.040   0.862
26136SOL    HW280416   9.386   6.933   0.945
26137SOL     OW80417   0.185   4.012   2.676
26137SOL    HW180418   0.198   4.053   2.761
26137SOL    HW280419   0.217   3.922   2.687
26138SOL     OW80420   4.475   6.497   7.734
26138SOL    HW180421   4.489   6.513   7.640
26138SOL    HW280422   4.401   6.436   7.737
26139SOL     OW80423   5.845   8.420   4.342
26139SOL    HW180424   5.855   8.507   4.379
26139SOL    HW280425   5.867   8.360   4.413
26140SOL     OW80426   6.707  10.124   9.297
26140SOL    HW180427   6.668  10.206   9.325
26140SOL    HW280428   6.729  10.078   9.378
26141SOL     OW80429   6.523   3.746   3.151
26141SOL    HW180430   6.601   3.800   3.139
26141SOL    HW280431   6.553   3.657   3.132
26142SOL     OW80432   7.548   3.773  10.775
26142SOL    HW180433   7.519   3.711  10.842
26142SOL    HW280434   7.642   3.782  10.789
26143SOL     OW80435   1.946   9.933  10.061
26143SOL    HW180436   2.034   9.937  10.099
26143SOL    HW280437   1.922  10.024  10.047
26144SOL     OW80438  10.820   2.921   1.054
26144SOL    HW180439  10.831   2.900   0.961
26144SOL    HW280440  10.902   2.892   1.095
26145SOL     OW80441   4.657   6.799   5.870
26145SOL    HW180442   4.747   6.767   5.868
26145SOL    HW280443   4.656   6.862   5.941
26146SOL     OW80444   8.274   2.233   6.449
26146SOL    HW180445   8.358   2.267   6.419
26146SOL    HW280446   8.247   2.172   6.380
26147SOL     OW80447   9.383   2.636   6.615
26147SOL    HW180448   9.360   2.686   6.693
26147SOL    HW280449   9.473   2.608   6.630
26148SOL     OW80450   4.929   0.980   2.298
26148SOL    HW180451   4.843   1.019   2.309
26148SOL    HW280452   4.912   0.886   2.295
26149SOL     OW80453   9.265  10.782   9.390
26149SOL    HW180454   9.204  10.774   9.463
26149SOL    HW280455   9.242  10.710   9.331
26150SOL     OW80456   5.621   8.401   5.387
26150SOL    HW180457   5.545   8.435   5.434
26150SOL    HW280458   5.690   8.394   5.453
26151SOL     OW80459  10.355   2.693  10.162
26151SOL    HW180460  10.333   2.653  10.246
26151SOL    HW280461  10.373   2.619  10.104
26152SOL     OW80462   8.377  10.085   4.162
26152SOL    HW180463   8.283  10.089   4.147
26152SOL    HW280464   8.398   9.991   4.156
26153SOL     OW80465   3.720   6.046   5.068
26153SOL    HW180466   3.748   6.137   5.079
26153SOL    HW280467   3.762   5.999   5.140
26154SOL     OW80468   8.856   7.177  11.029
26154SOL    HW180469   8.934   7.140  11.071
26154SOL    HW280470   8.877   7.269  11.017
26155SOL     OW80471   9.269   8.077   1.940
26155SOL    HW180472   9.231   8.164   1.946
26155SOL    HW280473   9.364   8.091   1.942
26156SOL     OW80474   7.857   6.376   2.026
26156SOL    HW180475   7.771   6.338   2.043
26156SOL    HW280476   7.914   6.335   2.091
26157SOL     OW80477   2.492   0.952  10.366
26157SOL    HW180478   2.419   1.010  10.345
26157SOL    HW280479   2.455   0.864  10.361
26158SOL     OW80480   2.459   4.514   4.909
26158SOL    HW180481   2.461   4.608   4.894
26158SOL    HW280482   2.494   4.476   4.828
26159SOL     OW80483   7.134   7.711   7.043
26159SOL    HW180484   7.088   7.687   7.123
26159SOL    HW280485   7.166   7.800   7.058
26160SOL     OW80486   6.148   8.937   7.462
26160SOL    HW180487   6.168   8.999   7.532
26160SOL    HW280488   6.233   8.916   7.423
26161SOL     OW80489   6.604   3.886   6.642
26161SOL    HW180490   6.682   3.866   6.694
26161SOL    HW280491   6.543   3.815   6.663
26162SOL     OW80492   7.105   5.609   9.036
26162SOL    HW180493   7.133   5.601   9.127
26162SOL    HW280494   7.173   5.661   8.994
26163SOL     OW80495   6.621   5.161   9.059
26163SOL    HW180496   6.684   5.112   9.005
26163SOL    HW280497   6.674   5.201   9.127
26164SOL     OW80498   4.326   0.603   8.368
26164SOL    HW180499   4.354   0.626   8.456
26164SOL    HW280500   4.369   0.519   8.350
26165SOL     OW80501  10.885   0.458   1.159
26165SOL    HW180502  10.821   0.510   1.111
26165SOL    HW280503  10.969   0.479   1.117
26166SOL     OW80504   9.665   2.418   5.972
26166SOL    HW180505   9.663   2.513   5.969
26166SOL    HW280506   9.666   2.391   5.880
26167SOL     OW80507   2.694   7.651   2.616
26167SOL    HW180508   2.764   7.586   2.605
26167SOL    HW280509   2.616   7.608   2.581
26168SOL     OW80510   5.880   0.230   5.434
26168SOL    HW180511   5.884   0.217   5.339
26168SOL    HW280512   5.811   0.294   5.446
26169SOL     OW80513   4.990   8.565   0.461
26169SOL    HW180514   4.902   8.536   0.486
26169SOL    HW280515   5.036   8.484   0.437
26170SOL     OW80516   3.745   4.375   1.556
26170SOL    HW180517   3.733   4.458   1.510
26170SOL    HW280518   3.670   4.322   1.530
26171SOL     OW80519   9.697   5.324   9.039
26171SOL    HW180520   9.743   5.289   8.963
26171SOL    HW280521   9.611   5.349   9.005
26172SOL     OW80522   7.060   9.882   4.030
26172SOL    HW180523   7.132   9.934   3.994
26172SOL    HW280524   7.029   9.830   3.955
26173SOL     OW80525   4.925   6.864   7.712
26173SOL    HW180526   5.019   6.871   7.730
26173SOL    HW280527   4.901   6.777   7.745
26174SOL     OW80528   5.112   5.585   9.201
26174SOL    HW180529   5.178   5.649   9.228
26174SOL    HW280530   5.131   5.507   9.253
26175SOL     OW80531   6.722   6.208   7.274
26175SOL    HW180532   6.787   6.191   7.206
26175SOL    HW280533   6.661   6.270   7.234
26176SOL     OW80534   0.044   8.460   2.279
26176SOL    HW180535  -0.027   8.408   2.240
26176SOL    HW280536   0.103   8.479   2.206
26177SOL     OW80537   7.582   2.590   9.542
26177SOL    HW180538   7.644   2.533   9.495
26177SOL    HW280539   7.637   2.641   9.600
26178SOL     OW80540   6.367   4.848   6.189
26178SOL    HW180541   6.303   4.918   6.202
26178SOL    HW280542   6.315   4.767   6.192
26179SOL     OW80543   3.579   9.645   7.759
26179SOL    HW180544   3.603   9.641   7.666
26179SOL    HW280545   3.516   9.717   7.764
26180SOL     OW80546   0.800   5.364   4.233
26180SOL    HW180547   0.846   5.370   4.317
26180SOL    HW280548   0.848   5.296   4.185
26181SOL     OW80549   2.407   7.304   6.356
26181SOL    HW180550   2.479   7.300   6.292
26181SOL    HW280551   2.374   7.214   6.360
26182SOL     OW80552   9.660   5.650   9.262
26182SOL    HW180553   9.753   5.646   9.241
26182SOL    HW280554   9.639   5.743   9.262
26183SOL     OW80555   7.807  10.254  10.929
26183SOL    HW180556   7.823  10.328  10.871
26183SOL    HW280557   7.834  10.177  10.877
26184SOL     OW80558   4.866   5.587   1.058
26184SOL    HW180559   4.920   5.511   1.080
26184SOL    HW280560   4.850   5.631   1.141
26185SOL     OW80561  10.418   0.683   5.693
26185SOL    HW180562  10.491   0.680   5.631
26185SOL    HW280563  10.370   0.602   5.675
26186SOL     OW80564   0.019   1.746   3.048
26186SOL    HW180565  -0.032   1.736   2.967
26186SOL    HW280566  -0.006   1.670   3.101
26187SOL     OW80567   6.143   2.024   3.104
26187SOL    HW180568   6.179   2.097   3.055
26187SOL    HW280569   6.118   2.061   3.188
26188SOL     OW80570   0.428   2.887   6.342
26188SOL    HW180571   0.444   2.969   6.295
26188SOL    HW280572   0.503   2.878   6.400
26189SOL     OW80573   5.926   1.401   7.135
26189SOL    HW180574   5.842   1.447   7.139
26189SOL    HW280575   5.988   1.466   7.103
26190SOL     OW80576   7.256   5.858   1.261
26190SOL    HW180577   7.340   5.813   1.251
26190SOL    HW280578   7.222   5.865   1.172
26191SOL     OW80579   5.408   0.783   4.203
26191SOL    HW180580   5.491   0.737   4.192
26191SOL    HW280581   5.343   0.713   4.212
26192SOL     OW80582  10.549   2.264   9.576
26192SOL    HW180583  10.556   2.285   9.669
26192SOL    HW280584  10.547   2.349   9.532
26193SOL     OW80585   4.710   8.210   8.998
26193SOL    HW180586   4.774   8.236   8.932
26193SOL    HW280587   4.673   8.292   9.030
26194SOL     OW80588   4.135   4.613   7.879
26194SOL    HW180589   4.064   4.653   7.828
26194SOL    HW280590   4.200   4.588   7.813
26195SOL     OW80591   5.681   7.293   3.317
26195SOL    HW180592   5.700   7.268   3.407
26195SOL    HW280593   5.686   7.210   3.268
26196SOL     OW80594   2.187   1.625  10.447
26196SOL    HW180595   2.221   1.548  10.401
26196SOL    HW280596   2.119   1.590  10.504
26197SOL     OW80597   4.457   9.760   9.716
26197SOL    HW180598   4.451   9.756   9.620
26197SOL    HW280599   4.383   9.815   9.742
26198SOL     OW80600   8.386   8.836   8.405
26198SOL    HW180601   8.352   8.925   8.397
26198SOL    HW280602   8.375   8.798   8.318
26199SOL     OW80603   7.286  10.309   7.379
26199SOL    HW180604   7.352  10.375   7.401
26199SOL    HW280605   7.300  10.291   7.286
26200SOL     OW80606   7.850   7.444   7.925
26200SOL    HW180607   7.870   7.357   7.890
26200SOL    HW280608   7.933   7.475   7.961
26201SOL     OW80609   6.048   5.870   9.800
26201SOL    HW180610   6.020   5.901   9.714
26201SOL    HW280611   6.144   5.875   9.797
26202SOL     OW80612   5.914   6.016   9.585
26202SOL    HW180613   5.944   6.022   9.494
26202SOL    HW280614   5.834   5.963   9.580
26203SOL     OW80615   0.755   7.057   8.172
26203SOL    HW180616   0.721   7.015   8.250
26203SOL    HW280617   0.747   7.150   8.189
26204SOL     OW80618   0.511   2.838  10.404
26204SOL    HW180619   0.525   2.890  10.482
26204SOL    HW280620   0.431   2.874  10.365
26205SOL     OW80621   1.645   1.078  10.629
26205SOL    HW180622   1.630   1.061  10.722
26205SOL    HW280623   1.571   1.037  10.584
26206SOL     OW80624   7.231  10.030   8.687
26206SOL    HW180625   7.244  10.015   8.593
26206SOL    HW280626   7.309   9.992   8.728
26207SOL     OW80627   0.027   6.406  10.134
26207SOL    HW180628   0.061   6.368  10.215
26207SOL    HW280629  -0.039   6.469  10.163
26208SOL     OW80630   3.441   5.544   9.809
26208SOL    HW180631   3.506   5.525   9.876
26208SOL    HW280632   3.367   5.582   9.857
26209SOL     OW80633   7.827   2.808   3.862
26209SOL    HW180634   7.862   2.839   3.945
26209SOL    HW280635   7.892   2.745   3.831
26210SOL     OW80636   8.096   8.832   2.233
26210SOL    HW180637   8.114   8.746   2.195
26210SOL    HW280638   8.164   8.844   2.299
26211SOL     OW80639   5.648  10.873   4.287
26211SOL    HW180640   5.552  10.875   4.285
26211SOL    HW280641   5.670  10.780   4.280
26212SOL     OW80642  10.921   2.459   6.363
26212SOL    HW180643  10.995   2.511   6.394
26212SOL    HW280644  10.871   2.438   6.441
26213SOL     OW80645   3.502   2.112   1.795
26213SOL    HW180646   3.555   2.126   1.873
26213SOL    HW280647   3.428   2.172   1.805
26214SOL     OW80648   9.910   7.076   4.146
26214SOL    HW180649   9.975   7.007   4.131
26214SOL    HW280650   9.961   7.157   4.147
26215SOL     OW80651   2.685   3.823   7.922
26215SOL    HW180652   2.667   3.833   8.015
26215SOL    HW280653   2.686   3.912   7.887
26216SOL     OW80654   3.270   9.823   6.633
26216SOL    HW180655   3.180   9.827   6.665
26216SOL    HW280656   3.295   9.731   6.643
26217SOL     OW80657   6.667   7.273  10.086
26217SOL    HW180658   6.606   7.221  10.033
26217SOL    HW280659   6.616   7.298  10.163
26218SOL     OW80660   2.671   1.155   0.675
26218SOL    HW180661   2.613   1.143   0.599
26218SOL    HW280662   2.665   1.072   0.723
26219SOL     OW80663   3.218   5.179   0.782
26219SOL    HW180664   3.179   5.265   0.766
26219SOL    HW280665   3.236   5.144   0.694
26220SOL     OW80666   6.990   0.081  10.989
26220SOL    HW180667   7.038   0.028  10.925
26220SOL    HW280668   6.933   0.137  10.936
26221SOL     OW80669   7.089   1.156   6.748
26221SOL    HW180670   7.130   1.077   6.712
26221SOL    HW280671   7.028   1.184   6.679
26222SOL     OW80672   5.821   6.241   0.274
26222SOL    HW180673   5.838   6.312   0.212
26222SOL    HW280674   5.877   6.260   0.349
26223SOL     OW80675   7.573   1.316   3.640
26223SOL    HW180676   7.660   1.355   3.639
26223SOL    HW280677   7.544   1.325   3.730
26224SOL     OW80678   6.341   5.128   8.041
26224SOL    HW180679   6.271   5.066   8.022
26224SOL    HW280680   6.419   5.088   8.001
26225SOL     OW80681   3.754   6.793   8.610
26225SOL    HW180682   3.746   6.730   8.682
26225SOL    HW280683   3.679   6.774   8.553
26226SOL     OW80684   7.612   6.176   6.115
26226SOL    HW180685   7.704   6.194   6.095
26226SOL    HW280686   7.576   6.141   6.033
26227SOL     OW80687  10.054   2.975   8.143
26227SOL    HW180688  10.071   2.883   8.121
26227SOL    HW280689  10.035   3.017   8.059
26228SOL     OW80690   6.496   4.063   0.739
26228SOL    HW180691   6.540   3.994   0.689
26228SOL    HW280692   6.560   4.090   0.805
26229SOL     OW80693   6.540   6.303   3.430
26229SOL    HW180694   6.477   6.247   3.475
26229SOL    HW280695   6.616   6.305   3.488
26230SOL     OW80696   8.651   4.384   7.991
26230SOL    HW180697   8.653   4.457   7.930
26230SOL    HW280698   8.628   4.423   8.075
26231SOL     OW80699   7.769   5.950  10.603
26231SOL    HW180700   7.769   5.855  10.616
26231SOL    HW280701   7.844   5.981  10.654
26232SOL     OW80702  10.751   2.545   8.416
26232SOL    HW180703  10.817   2.494   8.464
26232SOL    HW280704  10.686   2.570   8.482
26233SOL     OW80705   8.654   5.669   9.709
26233SOL    HW180706   8.670   5.659   9.803
26233SOL    HW280707   8.604   5.591   9.685
26234SOL     OW80708   1.847   5.328   2.126
26234SOL    HW180709   1.914   5.316   2.059
26234SOL    HW280710   1.837   5.241   2.165
26235SOL     OW80711   6.358   6.789   9.028
26235SOL    HW180712   6.273   6.765   8.991
26235SOL    HW280713   6.390   6.708   9.068
26236SOL     OW80714   7.417   9.423   9.852
26236SOL    HW180715   7.496   9.450   9.899
26236SOL    HW280716   7.395   9.497   9.796
26237SOL     OW80717   7.739   0.477   7.299
26237SOL    HW180718   7.813   0.465   7.239
26237SOL    HW280719   7.734   0.394   7.346
26238SOL     OW80720  10.998   8.642   6.318
26238SOL    HW180721  11.031   8.626   6.406
26238SOL    HW280722  10.910   8.676   6.331
26239SOL     OW80723   8.904   7.952   6.445
26239SOL    HW180724   8.859   7.963   6.361
26239SOL    HW280725   8.945   8.037   6.462
26240SOL     OW80726   6.679   9.279   8.803
26240SOL    HW180727   6.726   9.343   8.857
26240SOL    HW280728   6.748   9.222   8.769
26241SOL     OW80729   9.228  10.710   5.464
26241SOL    HW180730   9.281  10.734   5.540
26241SOL    HW280731   9.165  10.646   5.498
26242SOL     OW80732   4.136   3.719   2.311
26242SOL    HW180733   4.171   3.751   2.228
26242SOL    HW280734   4.158   3.626   2.312
26243SOL     OW80735   9.984   3.210   2.686
26243SOL    HW180736  10.060   3.159   2.657
26243SOL    HW280737   9.962   3.173   2.771
26244SOL     OW80738   5.781   6.044   6.973
26244SOL    HW180739   5.797   6.123   6.922
26244SOL    HW280740   5.738   5.984   6.911
26245SOL     OW80741   4.965   2.016   6.674
26245SOL    HW180742   4.891   2.072   6.652
26245SOL    HW280743   4.943   1.931   6.636
26246SOL     OW80744   9.454   2.367   0.463
26246SOL    HW180745   9.546   2.380   0.486
26246SOL    HW280746   9.406   2.387   0.543
26247SOL     OW80747   6.809   8.185  10.453
26247SOL    HW180748   6.736   8.182  10.391
26247SOL    HW280749   6.857   8.264  10.429
26248SOL     OW80750   6.790   0.428   5.220
26248SOL    HW180751   6.859   0.488   5.247
26248SOL    HW280752   6.825   0.341   5.241
26249SOL     OW80753   1.482   4.039   8.663
26249SOL    HW180754   1.536   4.078   8.594
26249SOL    HW280755   1.501   4.090   8.741
26250SOL     OW80756   5.773   4.186   8.540
26250SOL    HW180757   5.828   4.211   8.466
26250SOL    HW280758   5.684   4.199   8.509
26251SOL     OW80759   0.612   0.518   5.648
26251SOL    HW180760   0.530   0.504   5.695
26251SOL    HW280761   0.609   0.455   5.576
26252SOL     OW80762   8.175  10.085   5.466
26252SOL    HW180763   8.099  10.108   5.519
26252SOL    HW280764   8.149  10.006   5.419
26253SOL     OW80765   1.109   2.752   7.335
26253SOL    HW180766   1.095   2.671   7.384
26253SOL    HW280767   1.022   2.790   7.326
26254SOL     OW80768   8.737   5.312   7.318
26254SOL    HW180769   8.733   5.241   7.253
26254SOL    HW280770   8.729   5.267   7.402
26255SOL     OW80771   8.254   6.322   6.958
26255SOL    HW180772   8.214   6.246   6.916
26255SOL    HW280773   8.180   6.375   6.987
26256SOL     OW80774   0.001   4.013   1.371
26256SOL    HW180775   0.070   4.064   1.330
26256SOL    HW280776   0.046   3.940   1.413
26257SOL     OW80777   6.900   4.329  10.149
26257SOL    HW180778   6.827   4.332  10.211
26257SOL    HW280779   6.977   4.349  10.201
26258SOL     OW80780   2.798   1.297   8.314
26258SOL    HW180781   2.831   1.386   8.303
26258SOL    HW280782   2.733   1.304   8.384
26259SOL     OW80783   4.303   9.964   4.214
26259SOL    HW180784   4.375   9.980   4.153
26259SOL    HW280785   4.258  10.048   4.221
26260SOL     OW80786   0.398   1.469   8.054
26260SOL    HW180787   0.378   1.384   8.094
26260SOL    HW280788   0.413   1.528   8.128
26261SOL     OW80789   0.809   0.478   9.033
26261SOL    HW180790   0.809   0.386   9.005
26261SOL    HW280791   0.755   0.479   9.112
26262SOL     OW80792  10.621   6.412  10.477
26262SOL    HW180793  10.710   6.392  10.506
26262SOL    HW280794  10.630   6.492  10.425
26263SOL     OW80795   0.168   6.279   6.960
26263SOL    HW180796   0.075   6.286   6.984
26263SOL    HW280797   0.175   6.326   6.877
26264SOL     OW80798  10.703   8.591   9.191
26264SOL    HW180799  10.669   8.675   9.161
26264SOL    HW280800  10.712   8.539   9.111
26265SOL     OW80801   6.782   6.783   6.755
26265SOL    HW180802   6.854   6.814   6.810
26265SOL    HW280803   6.751   6.861   6.709
26266SOL     OW80804   2.362  10.208   5.051
26266SOL    HW180805   2.304  10.209   4.975
26266SOL    HW280806   2.350  10.120   5.088
26267SOL     OW80807   8.894   2.132   7.602
26267SOL    HW180808   8.832   2.152   7.672
26267SOL    HW280809   8.873   2.194   7.532
26268SOL     OW80810  10.261   5.919   7.498
26268SOL    HW180811  10.230   5.829   7.513
26268SOL    HW280812  10.355   5.910   7.483
26269SOL     OW80813   2.891   8.446   9.501
26269SOL    HW180814   2.802   8.411   9.500
26269SOL    HW280815   2.884   8.528   9.550
26270SOL     OW80816   6.371   0.434   8.817
26270SOL    HW180817   6.435   0.483   8.765
26270SOL    HW280818   6.310   0.399   8.752
26271SOL     OW80819   6.904   4.581   9.580
26271SOL    HW180820   6.830   4.527   9.553
26271SOL    HW280821   6.871   4.633   9.653
26272SOL     OW80822  10.267  10.827   9.340
26272SOL    HW180823  10.345  10.882   9.330
26272SOL    HW280824  10.197  10.888   9.363
26273SOL     OW80825   7.734   5.473  10.965
26273SOL    HW180826   7.707   5.556  10.926
26273SOL    HW280827   7.814   5.449  10.918
26274SOL     OW80828  10.327   5.067  10.905
26274SOL    HW180829  10.255   5.123  10.933
26274SOL    HW280830  10.295   4.978  10.919
26275SOL     OW80831   0.260   8.939  10.078
26275SOL    HW180832   0.262   8.851  10.116
26275SOL    HW280833   0.167   8.963  10.077
26276SOL     OW80834   8.846   6.135   7.427
26276SOL    HW180835   8.844   6.226   7.454
26276SOL    HW280836   8.913   6.095   7.482
26277SOL     OW80837  10.342   7.882   8.856
26277SOL    HW180838  10.397   7.938   8.801
26277SOL    HW280839  10.371   7.899   8.945
26278SOL     OW80840   7.345   3.619   8.434
26278SOL    HW180841   7.321   3.567   8.510
26278SOL    HW280842   7.281   3.594   8.367
26279SOL     OW80843  11.022  10.346   8.976
26279SOL    HW180844  10.970  10.368   8.899
26279SOL    HW280845  11.063  10.428   9.002
26280SOL     OW80846   9.193   4.228   7.112
26280SOL    HW180847   9.239   4.232   7.028
26280SOL    HW280848   9.257   4.260   7.176
26281SOL     OW80849   1.628   8.475   6.398
26281SOL    HW180850   1.536   8.450   6.410
26281SOL    HW280851   1.656   8.427   6.320
26282SOL     OW80852   1.670   7.001   0.372
26282SOL    HW180853   1.603   7.068   0.364
26282SOL    HW280854   1.742   7.043   0.418
26283SOL     OW80855   8.218   3.433   3.410
26283SOL    HW180856   8.266   3.410   3.330
26283SOL    HW280857   8.183   3.520   3.392
26284SOL     OW80858   3.313   6.766   7.898
26284SOL    HW180859   3.360   6.810   7.968
26284SOL    HW280860   3.382   6.724   7.846
26285SOL     OW80861   0.951   6.391   0.946
26285SOL    HW180862   0.987   6.331   1.011
26285SOL    HW280863   0.978   6.354   0.862
26286SOL     OW80864   5.995   8.679   6.971
26286SOL    HW180865   6.012   8.585   6.963
26286SOL    HW280866   5.916   8.693   6.919
26287SOL     OW80867   6.802   6.945   2.530
26287SOL    HW180868   6.793   6.935   2.624
26287SOL    HW280869   6.776   7.035   2.513
26288SOL     OW80870   8.021   8.928  10.888
26288SOL    HW180871   8.090   8.894  10.831
26288SOL    HW280872   7.943   8.931  10.832
26289SOL     OW80873   7.090   3.378   7.851
26289SOL    HW180874   7.134   3.383   7.766
26289SOL    HW280875   7.152   3.330   7.906
26290SOL     OW80876   0.157   6.454   4.407
26290SOL    HW180877   0.132   6.544   4.387
26290SOL    HW280878   0.112   6.433   4.489
26291SOL     OW80879   6.116  10.154  11.102
26291SOL    HW180880   6.198  10.141  11.054
26291SOL    HW280881   6.082  10.237  11.069
26292SOL     OW80882   4.825   5.546   2.919
26292SOL    HW180883   4.899   5.504   2.963
26292SOL    HW280884   4.781   5.474   2.873
26293SOL     OW80885   7.051   5.511   7.335
26293SOL    HW180886   6.971   5.516   7.283
26293SOL    HW280887   7.026   5.542   7.421
26294SOL     OW80888   6.149   7.448   3.849
26294SOL    HW180889   6.238   7.464   3.817
26294SOL    HW280890   6.144   7.495   3.932
26295SOL     OW80891   2.014   3.483   1.278
26295SOL    HW180892   1.947   3.472   1.345
26295SOL    HW280893   1.978   3.547   1.216
26296SOL     OW80894   9.903   5.406   6.162
26296SOL    HW180895   9.881   5.392   6.254
26296SOL    HW280896   9.924   5.499   6.156
26297SOL     OW80897   8.129   6.173   9.728
26297SOL    HW180898   8.173   6.157   9.644
26297SOL    HW280899   8.073   6.249   9.711
26298SOL     OW80900   8.824  10.377   8.231
26298SOL    HW180901   8.818  10.344   8.320
26298SOL    HW280902   8.902  10.433   8.231
26299SOL     OW80903   9.520   1.417   5.988
26299SOL    HW180904   9.563   1.447   5.908
26299SOL    HW280905   9.507   1.496   6.040
26300SOL     OW80906   8.511   9.584   8.049
26300SOL    HW180907   8.465   9.634   7.981
26300SOL    HW280908   8.590   9.635   8.068
26301SOL     OW80909   2.312   7.047   9.041
26301SOL    HW180910   2.369   7.036   8.965
26301SOL    HW280911   2.368   7.029   9.116
26302SOL     OW80912   0.526   9.557   8.907
26302SOL    HW180913   0.536   9.479   8.962
26302SOL    HW280914   0.479   9.620   8.961
26303SOL     OW80915   7.444   8.231   7.614
26303SOL    HW180916   7.370   8.223   7.554
26303SOL    HW280917   7.510   8.171   7.578
26304SOL     OW80918   0.728   9.846  10.689
26304SOL    HW180919   0.732   9.923  10.632
26304SOL    HW280920   0.636   9.822  10.691
26305SOL     OW80921  10.286   0.782   9.293
26305SOL    HW180922  10.249   0.710   9.242
26305SOL    HW280923  10.212   0.816   9.343
26306SOL     OW80924   8.520   7.957   8.693
26306SOL    HW180925   8.480   7.909   8.620
26306SOL    HW280926   8.502   7.903   8.770
26307SOL     OW80927   8.658   8.475   1.231
26307SOL    HW180928   8.648   8.484   1.136
26307SOL    HW280929   8.740   8.427   1.242
26308SOL     OW80930   8.046  10.008   6.595
26308SOL    HW180931   8.006  10.019   6.681
26308SOL    HW280932   8.139   9.993   6.613
26309SOL     OW80933   9.878   3.514   0.453
26309SOL    HW180934   9.908   3.466   0.375
26309SOL    HW280935   9.811   3.574   0.419
26310SOL     OW80936   5.126   4.243   6.023
26310SOL    HW180937   5.186   4.287   6.083
26310SOL    HW280938   5.083   4.313   5.975
26311SOL     OW80939   9.976   8.881   3.930
26311SOL    HW180940   9.902   8.891   3.870
26311SOL    HW280941   9.961   8.945   3.998
26312SOL     OW80942   5.569   2.056   6.077
26312SOL    HW180943   5.601   2.088   6.161
26312SOL    HW280944   5.480   2.025   6.095
26313SOL     OW80945   3.048  10.962   7.779
26313SOL    HW180946   3.022  10.979   7.869
26313SOL    HW280947   3.142  10.981   7.777
26314SOL     OW80948   7.520   2.719   7.121
26314SOL    HW180949   7.444   2.776   7.126
26314SOL    HW280950   7.542   2.717   7.027
26315SOL     OW80951   6.281   8.257  10.210
26315SOL    HW180952   6.340   8.313  10.160
26315SOL    HW280953   6.229   8.317  10.263
26316SOL     OW80954   9.589  10.557   5.059
26316SOL    HW180955   9.671  10.587   5.020
26316SOL    HW280956   9.582  10.607   5.140
26317SOL     OW80957   7.006   7.442   6.660
26317SOL    HW180958   7.069   7.513   6.670
26317SOL    HW280959   6.921   7.482   6.678
26318SOL     OW80960   4.583   6.111   8.754
26318SOL    HW180961   4.532   6.075   8.681
26318SOL    HW280962   4.664   6.060   8.754
26319SOL     OW80963   3.292   1.305   4.490
26319SOL    HW180964   3.259   1.250   4.561
26319SOL    HW280965   3.369   1.258   4.458
26320SOL     OW80966   4.185   7.254   7.603
26320SOL    HW180967   4.141   7.338   7.613
26320SOL    HW280968   4.228   7.259   7.517
26321SOL     OW80969   5.104   6.198   1.675
26321SOL    HW180970   5.122   6.104   1.677
26321SOL    HW280971   5.009   6.204   1.685
26322SOL     OW80972  10.296   2.963   7.877
26322SOL    HW180973  10.246   3.017   7.938
26322SOL    HW280974  10.381   3.007   7.869
26323SOL     OW80975   6.413   1.693   4.184
26323SOL    HW180976   6.409   1.597   4.176
26323SOL    HW280977   6.476   1.720   4.117
26324SOL     OW80978   0.121   3.626   0.328
26324SOL    HW180979   0.134   3.540   0.368
26324SOL    HW280980   0.077   3.677   0.395
26325SOL     OW80981   2.349   1.164   0.593
26325SOL    HW180982   2.394   1.095   0.544
26325SOL    HW280983   2.340   1.235   0.530
26326SOL     OW80984  10.178   0.139   1.428
26326SOL    HW180985  10.212   0.149   1.517
26326SOL    HW280986  10.235   0.193   1.374
26327SOL     OW80987   3.391   8.663  10.039
26327SOL    HW180988   3.303   8.668  10.075
26327SOL    HW280989   3.383   8.602   9.966
26328SOL     OW80990  10.426   4.197   8.394
26328SOL    HW180991  10.454   4.105   8.398
26328SOL    HW280992  10.331   4.192   8.384
26329SOL     OW80993   6.686   6.661   2.807
26329SOL    HW180994   6.652   6.586   2.856
26329SOL    HW280995   6.745   6.622   2.742
26330SOL     OW80996   0.832   8.163   5.144
26330SOL    HW180997   0.778   8.240   5.127
26330SOL    HW280998   0.909   8.197   5.190
26331SOL     OW80999   2.555   1.585   9.289
26331SOL    HW181000   2.544   1.680   9.289
26331SOL    HW281001   2.596   1.566   9.204
26332SOL     OW81002   8.535   5.813   0.112
26332SOL    HW181003   8.538   5.908   0.122
26332SOL    HW281004   8.616   5.791   0.066
26333SOL     OW81005   7.209   7.121   4.038
26333SOL    HW181006   7.152   7.103   4.113
26333SOL    HW281007   7.210   7.039   3.988
26334SOL     OW81008   2.882   6.287   2.308
26334SOL    HW181009   2.876   6.340   2.387
26334SOL    HW281010   2.896   6.198   2.340
26335SOL     OW81011   2.521   6.065   5.668
26335SOL    HW181012   2.495   6.087   5.757
26335SOL    HW281013   2.615   6.082   5.665
26336SOL     OW81014   4.448  10.577   9.277
26336SOL    HW181015   4.352  10.576   9.278
26336SOL    HW281016   4.472  10.504   9.220
26337SOL     OW81017   8.938   7.790   2.930
26337SOL    HW181018   8.864   7.821   2.878
26337SOL    HW281019   8.981   7.725   2.874
26338SOL     OW81020   8.979  10.517   4.454
26338SOL    HW181021   9.055  10.474   4.413
26338SOL    HW281022   8.904  10.487   4.402
26339SOL     OW81023   9.007   1.113   5.795
26339SOL    HW181024   9.044   1.044   5.850
26339SOL    HW281025   9.073   1.126   5.726
26340SOL     OW81026   5.095   8.564  10.991
26340SOL    HW181027   5.081   8.551  11.085
26340SOL    HW281028   5.053   8.648  10.971
26341SOL     OW81029  11.073   9.580   7.039
26341SOL    HW181030  11.038   9.552   7.123
26341SOL    HW281031  10.999   9.622   6.995
26342SOL     OW81032  10.740   0.309   1.581
26342SOL    HW181033  10.750   0.300   1.486
26342SOL    HW281034  10.829   0.301   1.615
26343SOL     OW81035  11.041   2.533  10.069
26343SOL    HW181036  11.046   2.579  10.152
26343SOL    HW281037  11.071   2.444  10.088
26344SOL     OW81038   9.296   5.158   6.533
26344SOL    HW181039   9.220   5.158   6.590
26344SOL    HW281040   9.369   5.134   6.590
26345SOL     OW81041   8.887   0.281   4.309
26345SOL    HW181042   8.949   0.247   4.244
26345SOL    HW281043   8.914   0.372   4.322
26346SOL     OW81044   7.448  10.162   0.603
26346SOL    HW181045   7.476  10.123   0.686
26346SOL    HW281046   7.475  10.098   0.536
26347SOL     OW81047   7.567   5.003   9.560
26347SOL    HW181048   7.527   4.939   9.501
26347SOL    HW281049   7.546   4.971   9.647
26348SOL     OW81050   4.287   1.927   7.727
26348SOL    HW181051   4.257   1.849   7.680
26348SOL    HW281052   4.358   1.962   7.672
26349SOL     OW81053   4.755   4.725   4.810
26349SOL    HW181054   4.761   4.683   4.896
26349SOL    HW281055   4.815   4.799   4.815
26350SOL     OW81056   7.436   1.931   0.293
26350SOL    HW181057   7.383   1.870   0.242
26350SOL    HW281058   7.507   1.877   0.328
26351SOL     OW81059   7.247   1.776   9.542
26351SOL    HW181060   7.290   1.786   9.627
26351SOL    HW281061   7.175   1.715   9.558
26352SOL     OW81062   8.772   6.990   9.571
26352SOL    HW181063   8.759   6.896   9.583
26352SOL    HW281064   8.849   7.010   9.624
26353SOL     OW81065   6.225   4.813   8.078
26353SOL    HW181066   6.160   4.883   8.073
26353SOL    HW281067   6.258   4.816   8.168
26354SOL     OW81068   2.549   7.615   1.500
26354SOL    HW181069   2.624   7.595   1.443
26354SOL    HW281070   2.538   7.537   1.554
26355SOL     OW81071  10.004   4.533   0.971
26355SOL    HW181072  10.083   4.582   0.949
26355SOL    HW281073   9.932   4.585   0.935
26356SOL     OW81074   8.515   4.495   0.745
26356SOL    HW181075   8.512   4.404   0.713
26356SOL    HW281076   8.490   4.548   0.669
26357SOL     OW81077   2.493   3.101   7.190
26357SOL    HW181078   2.428   3.135   7.251
26357SOL    HW281079   2.525   3.177   7.142
26358SOL     OW81080   3.769   6.411   7.793
26358SOL    HW181081   3.741   6.444   7.878
26358SOL    HW281082   3.857   6.377   7.808
26359SOL     OW81083   4.598   8.428  11.084
26359SOL    HW181084   4.573   8.339  11.109
26359SOL    HW281085   4.567   8.437  10.994
26360SOL     OW81086   5.818   8.987   6.353
26360SOL    HW181087   5.899   9.020   6.392
26360SOL    HW281088   5.835   8.893   6.339
26361SOL     OW81089   4.038   1.083   7.841
26361SOL    HW181090   4.080   0.998   7.859
26361SOL    HW281091   4.100   1.129   7.785
26362SOL     OW81092   8.871   1.446   1.362
26362SOL    HW181093   8.837   1.475   1.277
26362SOL    HW281094   8.793   1.423   1.413
26363SOL     OW81095   3.227   7.597   8.193
26363SOL    HW181096   3.222   7.578   8.099
26363SOL    HW281097   3.321   7.609   8.210
26364SOL     OW81098   0.972   8.656   3.478
26364SOL    HW181099   0.987   8.624   3.389
26364SOL    HW281100   0.878   8.646   3.492
26365SOL     OW81101   9.095   5.654   7.898
26365SOL    HW181102   9.034   5.644   7.825
26365SOL    HW281103   9.181   5.643   7.858
26366SOL     OW81104   7.079  10.105   5.464
26366SOL    HW181105   7.098  10.066   5.549
26366SOL    HW281106   7.013  10.172   5.482
26367SOL     OW81107   7.660   6.504   6.289
26367SOL    HW181108   7.665   6.412   6.315
26367SOL    HW281109   7.658   6.502   6.193
26368SOL     OW81110   1.588   8.169   8.912
26368SOL    HW181111   1.592   8.258   8.877
26368SOL    HW281112   1.531   8.122   8.851
26369SOL     OW81113   7.928   3.374   9.939
26369SOL    HW181114   7.960   3.290   9.971
26369SOL    HW281115   7.897   3.419  10.017
26370SOL     OW81116   6.205   8.078   3.910
26370SOL    HW181117   6.277   8.016   3.897
26370SOL    HW281118   6.247   8.159   3.937
26371SOL     OW81119  10.230   9.920   7.462
26371SOL    HW181120  10.220   9.860   7.536
26371SOL    HW281121  10.207  10.006   7.497
26372SOL     OW81122   0.865   4.881   1.322
26372SOL    HW181123   0.853   4.828   1.243
26372SOL    HW281124   0.870   4.816   1.393
26373SOL     OW81125   6.840   7.714   6.888
26373SOL    HW181126   6.929   7.715   6.853
26373SOL    HW281127   6.793   7.653   6.831
26374SOL     OW81128   5.541   9.346   8.951
26374SOL    HW181129   5.634   9.353   8.972
26374SOL    HW281130   5.529   9.254   8.925
26375SOL     OW81131   1.309   2.056   7.882
26375SOL    HW181132   1.325   2.142   7.920
26375SOL    HW281133   1.255   2.073   7.805
26376SOL     OW81134   0.619   4.791   0.273
26376SOL    HW181135   0.582   4.865   0.225
26376SOL    HW281136   0.598   4.809   0.364
26377SOL     OW81137   6.431   4.598   5.344
26377SOL    HW181138   6.518   4.560   5.332
26377SOL    HW281139   6.371   4.525   5.325
26378SOL     OW81140   6.937   7.681   7.275
26378SOL    HW181141   6.994   7.651   7.345
26378SOL    HW281142   6.898   7.762   7.308
26379SOL     OW81143   8.201   5.069   9.556
26379SOL    HW181144   8.281   5.097   9.511
26379SOL    HW281145   8.231   5.033   9.639
26380SOL     OW81146   6.155   7.769   4.713
26380SOL    HW181147   6.209   7.794   4.788
26380SOL    HW281148   6.133   7.677   4.728
26381SOL     OW81149   8.726   8.481  10.120
26381SOL    HW181150   8.768   8.440  10.044
26381SOL    HW281151   8.730   8.575  10.102
26382SOL     OW81152  10.177   9.115   7.852
26382SOL    HW181153  10.239   9.065   7.799
26382SOL    HW281154  10.223   9.196   7.872
26383SOL     OW81155   1.917   5.649   0.731
26383SOL    HW181156   2.007   5.621   0.715
26383SOL    HW281157   1.874   5.571   0.766
26384SOL     OW81158   9.423   3.978   5.413
26384SOL    HW181159   9.379   3.956   5.331
26384SOL    HW281160   9.368   3.938   5.480
26385SOL     OW81161   5.287   8.200  10.671
26385SOL    HW181162   5.269   8.122  10.724
26385SOL    HW281163   5.346   8.252  10.725
26386SOL     OW81164  10.842   4.374   3.548
26386SOL    HW181165  10.932   4.400   3.530
26386SOL    HW281166  10.818   4.422   3.626
26387SOL     OW81167   5.580  10.341   1.606
26387SOL    HW181168   5.578  10.342   1.510
26387SOL    HW281169   5.610  10.428   1.630
26388SOL     OW81170   7.946   9.040   1.910
26388SOL    HW181171   7.900   9.098   1.969
26388SOL    HW281172   8.038   9.050   1.932
26389SOL     OW81173  10.428   1.683   6.813
26389SOL    HW181174  10.382   1.638   6.884
26389SOL    HW281175  10.500   1.624   6.791
26390SOL     OW81176   5.267   1.475   2.235
26390SOL    HW181177   5.205   1.547   2.238
26390SOL    HW281178   5.221   1.401   2.275
26391SOL     OW81179   0.344   2.691   7.184
26391SOL    HW181180   0.418   2.731   7.228
26391SOL    HW281181   0.300   2.640   7.252
26392SOL     OW81182   6.557   9.550   1.137
26392SOL    HW181183   6.533   9.457   1.131
26392SOL    HW281184   6.544   9.583   1.048
26393SOL     OW81185   6.135  10.153   9.414
26393SOL    HW181186   6.086  10.126   9.336
26393SOL    HW281187   6.218  10.186   9.379
26394SOL     OW81188   5.760   1.204   0.158
26394SOL    HW181189   5.666   1.214   0.144
26394SOL    HW281190   5.777   1.112   0.138
26395SOL     OW81191   4.296   9.509   9.298
26395SOL    HW181192   4.302   9.600   9.270
26395SOL    HW281193   4.378   9.469   9.268
26396SOL     OW81194   3.245   8.383   7.328
26396SOL    HW181195   3.176   8.427   7.377
26396SOL    HW281196   3.317   8.372   7.391
26397SOL     OW81197   9.034   9.378   8.389
26397SOL    HW181198   9.087   9.379   8.469
26397SOL    HW281199   8.984   9.296   8.394
26398SOL     OW81200   6.344   0.710   7.151
26398SOL    HW181201   6.392   0.792   7.137
26398SOL    HW281202   6.387   0.669   7.226
26399SOL     OW81203   5.557   2.586   8.096
26399SOL    HW181204   5.515   2.663   8.059
26399SOL    HW281205   5.611   2.619   8.167
26400SOL     OW81206   7.328   5.203   1.371
26400SOL    HW181207   7.313   5.108   1.376
26400SOL    HW281208   7.366   5.217   1.284
26401SOL     OW81209   3.357   5.113   1.302
26401SOL    HW181210   3.345   5.029   1.256
26401SOL    HW281211   3.268   5.146   1.313
26402SOL     OW81212   0.382   2.600  10.552
26402SOL    HW181213   0.440   2.635  10.484
26402SOL    HW281214   0.353   2.515  10.517
26403SOL     OW81215   2.571   8.620   1.713
26403SOL    HW181216   2.639   8.576   1.764
26403SOL    HW281217   2.550   8.698   1.763
26404SOL     OW81218   4.492   8.006   8.863
26404SOL    HW181219   4.570   8.042   8.906
26404SOL    HW281220   4.527   7.947   8.796
26405SOL     OW81221   6.106   0.292  10.646
26405SOL    HW181222   6.080   0.366  10.701
26405SOL    HW281223   6.165   0.330  10.581
26406SOL     OW81224   4.271   9.230   7.490
26406SOL    HW181225   4.252   9.172   7.564
26406SOL    HW281226   4.262   9.318   7.525
26407SOL     OW81227   6.450   9.435  10.637
26407SOL    HW181228   6.397   9.430  10.716
26407SOL    HW281229   6.531   9.388  10.659
26408SOL     OW81230   5.007   0.912   8.173
26408SOL    HW181231   4.985   0.860   8.095
26408SOL    HW281232   5.033   0.997   8.138
26409SOL     OW81233   0.872   1.564   4.210
26409SOL    HW181234   0.915   1.491   4.164
26409SOL    HW281235   0.934   1.589   4.279
26410SOL     OW81236   9.271   4.031   5.679
26410SOL    HW181237   9.363   4.016   5.699
26410SOL    HW281238   9.245   4.102   5.737
26411SOL     OW81239  10.999   0.722   8.257
26411SOL    HW181240  10.947   0.702   8.179
26411SOL    HW281241  10.951   0.791   8.301
26412SOL     OW81242   6.572   9.875   9.398
26412SOL    HW181243   6.660   9.892   9.430
26412SOL    HW281244   6.586   9.833   9.313
26413SOL     OW81245  10.263   4.188   4.091
26413SOL    HW181246  10.275   4.246   4.165
26413SOL    HW281247  10.337   4.127   4.096
26414SOL     OW81248   5.236   4.176   8.641
26414SOL    HW181249   5.257   4.143   8.553
26414SOL    HW281250   5.321   4.195   8.680
26415SOL     OW81251   8.815   5.121   8.530
26415SOL    HW181252   8.726   5.156   8.538
26415SOL    HW281253   8.824   5.100   8.437
26416SOL     OW81254   0.317   7.830   1.309
26416SOL    HW181255   0.348   7.809   1.221
26416SOL    HW281256   0.227   7.859   1.295
26417SOL     OW81257   5.531   3.370   8.094
26417SOL    HW181258   5.580   3.451   8.104
26417SOL    HW281259   5.552   3.340   8.005
26418SOL     OW81260   6.956  10.695  10.179
26418SOL    HW181261   6.937  10.605  10.205
26418SOL    HW281262   7.011  10.730  10.249
26419SOL     OW81263   7.439   7.382  10.517
26419SOL    HW181264   7.363   7.344  10.473
26419SOL    HW281265   7.513   7.332  10.483
26420SOL     OW81266   9.000   6.279   0.931
26420SOL    HW181267   8.941   6.242   0.865
26420SOL    HW281268   9.036   6.202   0.976
26421SOL     OW81269   8.204  10.103   1.584
26421SOL    HW181270   8.234  10.030   1.638
26421SOL    HW281271   8.132  10.067   1.532
26422SOL     OW81272   8.065   0.514   2.883
26422SOL    HW181273   8.129   0.460   2.929
26422SOL    HW281274   7.992   0.522   2.944
26423SOL     OW81275   5.620   0.172   8.539
26423SOL    HW181276   5.625   0.153   8.632
26423SOL    HW281277   5.627   0.086   8.497
26424SOL     OW81278   7.200   9.241   8.553
26424SOL    HW181279   7.219   9.176   8.620
26424SOL    HW281280   7.248   9.210   8.476
26425SOL     OW81281   3.481   8.091  10.213
26425SOL    HW181282   3.542   8.074  10.141
26425SOL    HW281283   3.516   8.040  10.286
26426SOL     OW81284   1.838   6.942   0.734
26426SOL    HW181285   1.875   7.016   0.686
26426SOL    HW281286   1.752   6.972   0.762
26427SOL     OW81287   6.956   9.052   2.836
26427SOL    HW181288   6.923   8.984   2.776
26427SOL    HW281289   6.933   9.135   2.794
26428SOL     OW81290   9.622  10.922   7.108
26428SOL    HW181291   9.580  10.844   7.143
26428SOL    HW281292   9.602  10.920   7.014
26429SOL     OW81293   5.125   2.298   9.388
26429SOL    HW181294   5.119   2.328   9.297
26429SOL    HW281295   5.116   2.377   9.440
26430SOL     OW81296   7.256   1.580   1.223
26430SOL    HW181297   7.257   1.664   1.267
26430SOL    HW281298   7.256   1.602   1.130
26431SOL     OW81299   6.400   2.999  10.292
26431SOL    HW181300   6.345   3.071  10.323
26431SOL    HW281301   6.395   3.004  10.196
26432SOL     OW81302  10.791   9.532   9.236
26432SOL    HW181303  10.858   9.584   9.191
26432SOL    HW281304  10.811   9.542   9.329
26433SOL     OW81305   9.373   0.419   1.611
26433SOL    HW181306   9.346   0.344   1.664
26433SOL    HW281307   9.394   0.381   1.525
26434SOL     OW81308   2.091   9.347   8.569
26434SOL    HW181309   2.116   9.389   8.651
26434SOL    HW281310   2.129   9.259   8.574
26435SOL     OW81311   3.773   3.348   1.184
26435SOL    HW181312   3.863   3.318   1.198
26435SOL    HW281313   3.723   3.267   1.172
26436SOL     OW81314   9.958   9.149   3.081
26436SOL    HW181315  10.001   9.215   3.027
26436SOL    HW281316   9.922   9.197   3.155
26437SOL     OW81317   1.217   4.956   6.266
26437SOL    HW181318   1.301   4.910   6.272
26437SOL    HW281319   1.155   4.888   6.241
26438SOL     OW81320   0.809   3.634   4.373
26438SOL    HW181321   0.791   3.554   4.422
26438SOL    HW281322   0.733   3.690   4.389
26439SOL     OW81323  10.974   4.138   9.968
26439SOL    HW181324  10.962   4.053   9.925
26439SOL    HW281325  10.914   4.197   9.922
26440SOL     OW81326   8.190   9.472   0.874
26440SOL    HW181327   8.210   9.378   0.875
26440SOL    HW281328   8.097   9.476   0.852
26441SOL     OW81329   0.817   9.517  10.982
26441SOL    HW181330   0.741   9.532  11.038
26441SOL    HW281331   0.780   9.491  10.898
26442SOL     OW81332   1.453   3.689   9.647
26442SOL    HW181333   1.380   3.701   9.586
26442SOL    HW281334   1.422   3.623   9.709
26443SOL     OW81335   3.350   9.964   7.467
26443SOL    HW181336   3.308  10.049   7.456
26443SOL    HW281337   3.370   9.958   7.560
26444SOL     OW81338   6.436   2.959   9.469
26444SOL    HW181339   6.475   2.873   9.483
26444SOL    HW281340   6.412   2.959   9.376
26445SOL     OW81341   0.320   6.654   8.013
26445SOL    HW181342   0.350   6.730   8.062
26445SOL    HW281343   0.393   6.592   8.016
26446SOL     OW81344   5.051   9.147   3.336
26446SOL    HW181345   4.973   9.167   3.284
26446SOL    HW281346   5.123   9.187   3.287
26447SOL     OW81347  10.205   4.149  10.930
26447SOL    HW181348  10.148   4.208  10.979
26447SOL    HW281349  10.232   4.083  10.994
26448SOL     OW81350   4.415   4.732   0.428
26448SOL    HW181351   4.422   4.639   0.452
26448SOL    HW281352   4.322   4.744   0.408
26449SOL     OW81353   6.052  10.123   6.670
26449SOL    HW181354   6.007  10.073   6.601
26449SOL    HW281355   6.129  10.160   6.626
26450SOL     OW81356   1.666   1.142   2.425
26450SOL    HW181357   1.735   1.200   2.457
26450SOL    HW281358   1.674   1.063   2.478
26451SOL     OW81359   0.657   3.727   0.917
26451SOL    HW181360   0.584   3.737   0.855
26451SOL    HW281361   0.692   3.640   0.898
26452SOL     OW81362   1.138   2.445   6.367
26452SOL    HW181363   1.168   2.526   6.326
26452SOL    HW281364   1.075   2.473   6.433
26453SOL     OW81365   0.410   1.318   8.488
26453SOL    HW181366   0.459   1.399   8.499
26453SOL    HW281367   0.424   1.270   8.569
26454SOL     OW81368   3.428   4.640   8.870
26454SOL    HW181369   3.340   4.605   8.855
26454SOL    HW281370   3.478   4.565   8.902
26455SOL     OW81371   8.762   3.840   3.611
26455SOL    HW181372   8.817   3.888   3.673
26455SOL    HW281373   8.824   3.791   3.557
26456SOL     OW81374   7.545   3.959   2.384
26456SOL    HW181375   7.494   3.889   2.424
26456SOL    HW281376   7.571   4.015   2.457
26457SOL     OW81377   6.566   6.814   7.090
26457SOL    HW181378   6.531   6.841   7.005
26457SOL    HW281379   6.596   6.724   7.076
26458SOL     OW81380   7.308  10.428   1.441
26458SOL    HW181381   7.309  10.506   1.497
26458SOL    HW281382   7.230  10.439   1.386
26459SOL     OW81383   1.197   4.436   5.972
26459SOL    HW181384   1.117   4.412   6.018
26459SOL    HW281385   1.268   4.418   6.034
26460SOL     OW81386   7.534   9.016   9.293
26460SOL    HW181387   7.483   8.972   9.360
26460SOL    HW281388   7.472   9.031   9.221
26461SOL     OW81389   5.069   2.529   2.931
26461SOL    HW181390   4.991   2.584   2.934
26461SOL    HW281391   5.105   2.533   3.019
26462SOL     OW81392   7.182  10.231   0.642
26462SOL    HW181393   7.277  10.223   0.631
26462SOL    HW281394   7.162  10.173   0.715
26463SOL     OW81395   3.809   5.965   8.086
26463SOL    HW181396   3.865   5.929   8.017
26463SOL    HW281397   3.721   5.935   8.063
26464SOL     OW81398   2.681   2.863   9.279
26464SOL    HW181399   2.746   2.794   9.262
26464SOL    HW281400   2.669   2.906   9.194
26465SOL     OW81401  10.923   0.053   9.716
26465SOL    HW181402  10.942   0.068   9.808
26465SOL    HW281403  10.921   0.140   9.677
26466SOL     OW81404   2.795   7.075  10.984
26466SOL    HW181405   2.761   7.059  11.072
26466SOL    HW281406   2.773   7.166  10.966
26467SOL     OW81407   9.628   4.051   9.186
26467SOL    HW181408   9.639   3.969   9.234
26467SOL    HW281409   9.702   4.052   9.124
26468SOL     OW81410   5.274   8.020  10.889
26468SOL    HW181411   5.277   8.083  10.961
26468SOL    HW281412   5.196   7.967  10.906
26469SOL     OW81413  10.473   2.286   2.360
26469SOL    HW181414  10.436   2.259   2.444
26469SOL    HW281415  10.548   2.341   2.383
26470SOL     OW81416   1.315   3.845   6.116
26470SOL    HW181417   1.291   3.914   6.054
26470SOL    HW281418   1.411   3.843   6.114
26471SOL     OW81419   4.100   1.784  11.052
26471SOL    HW181420   4.054   1.733  11.119
26471SOL    HW281421   4.172   1.727  11.024
26472SOL     OW81422   5.147   4.869   3.296
26472SOL    HW181423   5.141   4.921   3.215
26472SOL    HW281424   5.079   4.905   3.353
26473SOL     OW81425   9.608   0.211   8.131
26473SOL    HW181426   9.645   0.169   8.053
26473SOL    HW281427   9.542   0.149   8.162
26474SOL     OW81428   7.551   0.872   7.521
26474SOL    HW181429   7.562   0.789   7.567
26474SOL    HW281430   7.500   0.849   7.443
26475SOL     OW81431   8.297   9.088   4.413
26475SOL    HW181432   8.244   9.017   4.449
26475SOL    HW281433   8.276   9.089   4.319
26476SOL     OW81434   2.807   1.024   6.097
26476SOL    HW181435   2.797   1.035   6.002
26476SOL    HW281436   2.902   1.028   6.112
26477SOL     OW81437   9.652   2.475   5.685
26477SOL    HW181438   9.680   2.565   5.670
26477SOL    HW281439   9.638   2.440   5.597
26478SOL     OW81440   2.503   7.231   7.487
26478SOL    HW181441   2.465   7.219   7.400
26478SOL    HW281442   2.433   7.270   7.539
26479SOL     OW81443   5.266   6.547   9.450
26479SOL    HW181444   5.357   6.576   9.448
26479SOL    HW281445   5.231   6.582   9.532
26480SOL     OW81446   2.031   2.834   2.120
26480SOL    HW181447   2.039   2.794   2.206
26480SOL    HW281448   2.102   2.898   2.117
26481SOL     OW81449   9.611   7.504  10.566
26481SOL    HW181450   9.543   7.440  10.545
26481SOL    HW281451   9.573   7.588  10.542
26482SOL     OW81452   8.372   4.304   9.365
26482SOL    HW181453   8.298   4.255   9.401
26482SOL    HW281454   8.448   4.249   9.384
26483SOL     OW81455   8.227   1.747   4.955
26483SOL    HW181456   8.195   1.778   5.040
26483SOL    HW281457   8.154   1.697   4.918
26484SOL     OW81458   4.279   6.330   7.734
26484SOL    HW181459   4.248   6.247   7.770
26484SOL    HW281460   4.245   6.332   7.644
26485SOL     OW81461   3.774   8.907   8.893
26485SOL    HW181462   3.717   8.838   8.859
26485SOL    HW281463   3.842   8.917   8.826
26486SOL     OW81464   8.609   4.667   0.243
26486SOL    HW181465   8.589   4.741   0.185
26486SOL    HW281466   8.648   4.601   0.185
26487SOL     OW81467   2.101   7.007   1.379
26487SOL    HW181468   2.108   7.085   1.433
26487SOL    HW281469   2.137   7.033   1.294
26488SOL     OW81470  10.890  10.090   7.950
26488SOL    HW181471  10.836  10.142   7.890
26488SOL    HW281472  10.839  10.084   8.030
26489SOL     OW81473   7.482   4.517   0.235
26489SOL    HW181474   7.465   4.586   0.171
26489SOL    HW281475   7.502   4.564   0.316
26490SOL     OW81476   4.447   7.402   9.249
26490SOL    HW181477   4.451   7.381   9.155
26490SOL    HW281478   4.370   7.355   9.280
26491SOL     OW81479   3.316   6.241   9.512
26491SOL    HW181480   3.368   6.179   9.563
26491SOL    HW281481   3.312   6.202   9.424
26492SOL     OW81482   2.320   6.061   0.383
26492SOL    HW181483   2.233   6.022   0.375
26492SOL    HW281484   2.338   6.062   0.477
26493SOL     OW81485  10.172  10.439   2.036
26493SOL    HW181486  10.246  10.500   2.037
26493SOL    HW281487  10.172  10.405   1.946
26494SOL     OW81488   2.148   1.812   1.549
26494SOL    HW181489   2.137   1.869   1.625
26494SOL    HW281490   2.062   1.810   1.507
26495SOL     OW81491   5.939   5.025   9.347
26495SOL    HW181492   5.927   4.998   9.438
26495SOL    HW281493   5.857   5.068   9.323
26496SOL     OW81494   6.929   4.680   8.585
26496SOL    HW181495   6.839   4.670   8.554
26496SOL    HW281496   6.945   4.602   8.638
26497SOL     OW81497   9.226   7.322   8.192
26497SOL    HW181498   9.238   7.306   8.285
26497SOL    HW281499   9.223   7.234   8.153
26498SOL     OW81500   8.075   3.992   3.638
26498SOL    HW181501   8.056   3.965   3.728
26498SOL    HW281502   8.006   3.951   3.586
26499SOL     OW81503   7.492   7.232   3.525
26499SOL    HW181504   7.506   7.176   3.448
26499SOL    HW281505   7.426   7.186   3.576
26500SOL     OW81506   8.269   2.664  10.551
26500SOL    HW181507   8.360   2.647  10.574
26500SOL    HW281508   8.219   2.633  10.626
26501SOL     OW81509   7.369   1.758   8.630
26501SOL    HW181510   7.447   1.782   8.580
26501SOL    HW281511   7.403   1.716   8.709
26502SOL     OW81512   8.230   5.832   4.578
26502SOL    HW181513   8.141   5.863   4.559
26502SOL    HW281514   8.234   5.745   4.538
26503SOL     OW81515   9.724   6.608   9.090
26503SOL    HW181516   9.756   6.696   9.074
26503SOL    HW281517   9.735   6.595   9.184
26504SOL     OW81518   8.093   2.117   3.449
26504SOL    HW181519   8.027   2.077   3.392
26504SOL    HW281520   8.102   2.056   3.522
26505SOL     OW81521   9.575  10.976   7.880
26505SOL    HW181522   9.602  10.939   7.795
26505SOL    HW281523   9.623  11.059   7.886
26506SOL     OW81524   1.170   4.912   5.889
26506SOL    HW181525   1.178   5.001   5.856
26506SOL    HW281526   1.090   4.878   5.849
26507SOL     OW81527   6.405   4.772   4.311
26507SOL    HW181528   6.447   4.735   4.388
26507SOL    HW281529   6.312   4.772   4.332
26508SOL     OW81530   2.811   9.975   1.362
26508SOL    HW181531   2.739   9.958   1.422
26508SOL    HW281532   2.792   9.920   1.285
26509SOL     OW81533   1.543   9.717   0.432
26509SOL    HW181534   1.470   9.685   0.485
26509SOL    HW281535   1.616   9.658   0.453
26510SOL     OW81536  10.662   6.221   7.611
26510SOL    HW181537  10.739   6.171   7.638
26510SOL    HW281538  10.684   6.312   7.631
26511SOL     OW81539   7.771   5.280   3.346
26511SOL    HW181540   7.711   5.267   3.272
26511SOL    HW281541   7.814   5.363   3.327
26512SOL     OW81542   6.824  10.665   1.266
26512SOL    HW181543   6.851  10.701   1.350
26512SOL    HW281544   6.783  10.581   1.287
26513SOL     OW81545   6.907   0.537   7.671
26513SOL    HW181546   6.984   0.499   7.714
26513SOL    HW281547   6.834   0.518   7.730
26514SOL     OW81548   3.616   1.840   3.210
26514SOL    HW181549   3.699   1.879   3.238
26514SOL    HW281550   3.565   1.913   3.176
26515SOL     OW81551   5.965   2.919   7.633
26515SOL    HW181552   6.028   2.979   7.594
26515SOL    HW281553   5.913   2.973   7.692
26516SOL     OW81554   3.275   3.993   2.259
26516SOL    HW181555   3.233   3.982   2.173
26516SOL    HW281556   3.346   4.055   2.243
26517SOL     OW81557   4.383   8.216   8.717
26517SOL    HW181558   4.310   8.158   8.696
26517SOL    HW281559   4.427   8.173   8.790
26518SOL     OW81560   4.125  10.710   8.422
26518SOL    HW181561   4.141  10.768   8.347
26518SOL    HW281562   4.044  10.664   8.399
26519SOL     OW81563   2.617  10.555   5.570
26519SOL    HW181564   2.546  10.491   5.575
26519SOL    HW281565   2.688  10.508   5.526
26520SOL     OW81566   1.916   6.188   8.225
26520SOL    HW181567   1.903   6.095   8.243
26520SOL    HW281568   1.892   6.232   8.306
26521SOL     OW81569   3.541   0.499   2.066
26521SOL    HW181570   3.573   0.528   1.980
26521SOL    HW281571   3.516   0.579   2.111
26522SOL     OW81572   9.512   6.080   5.786
26522SOL    HW181573   9.538   5.988   5.773
26522SOL    HW281574   9.594   6.125   5.807
26523SOL     OW81575   3.738   7.612   8.153
26523SOL    HW181576   3.803   7.646   8.091
26523SOL    HW281577   3.790   7.578   8.226
26524SOL     OW81578  10.825   3.358   7.676
26524SOL    HW181579  10.813   3.285   7.614
26524SOL    HW281580  10.774   3.430   7.638
26525SOL     OW81581   1.000   5.119  10.121
26525SOL    HW181582   1.086   5.140  10.158
26525SOL    HW281583   0.984   5.187  10.056
26526SOL     OW81584   7.982   9.611   4.629
26526SOL    HW181585   8.032   9.601   4.548
26526SOL    HW281586   7.921   9.682   4.611
26527SOL     OW81587   7.174   0.501   8.460
26527SOL    HW181588   7.122   0.489   8.539
26527SOL    HW281589   7.125   0.564   8.408
26528SOL     OW81590   2.822   8.032   0.261
26528SOL    HW181591   2.876   7.962   0.297
26528SOL    HW281592   2.866   8.056   0.179
26529SOL     OW81593   9.362   3.669  10.295
26529SOL    HW181594   9.290   3.654  10.233
26529SOL    HW281595   9.405   3.583  10.302
26530SOL     OW81596   6.001  10.766  10.893
26530SOL    HW181597   5.990  10.834  10.826
26530SOL    HW281598   6.093  10.739  10.885
26531SOL     OW81599   8.656   2.603  10.651
26531SOL    HW181600   8.611   2.587  10.734
26531SOL    HW281601   8.705   2.684  10.664
26532SOL     OW81602   8.817   6.386   3.840
26532SOL    HW181603   8.787   6.471   3.807
26532SOL    HW281604   8.816   6.395   3.935
26533SOL     OW81605   4.555   4.846   7.371
26533SOL    HW181606   4.586   4.755   7.364
26533SOL    HW281607   4.556   4.878   7.281
26534SOL     OW81608   2.282   7.297   8.361
26534SOL    HW181609   2.317   7.382   8.334
26534SOL    HW281610   2.220   7.273   8.292
26535SOL     OW81611   6.120   1.658   9.239
26535SOL    HW181612   6.079   1.744   9.240
26535SOL    HW281613   6.081   1.614   9.163
26536SOL     OW81614   5.424   0.838   9.845
26536SOL    HW181615   5.359   0.797   9.788
26536SOL    HW281616   5.502   0.783   9.835
26537SOL     OW81617   1.604   0.515   2.358
26537SOL    HW181618   1.571   0.481   2.274
26537SOL    HW281619   1.686   0.468   2.372
26538SOL     OW81620   3.954   6.769   2.435
26538SOL    HW181621   3.922   6.680   2.451
26538SOL    HW281622   3.904   6.799   2.359
26539SOL     OW81623   0.141   2.066   0.631
26539SOL    HW181624   0.086   2.144   0.633
26539SOL    HW281625   0.160   2.047   0.723
26540SOL     OW81626  10.262   6.161  10.520
26540SOL    HW181627  10.238   6.238  10.469
26540SOL    HW281628  10.358   6.158  10.516
26541SOL     OW81629   3.020   1.554   7.104
26541SOL    HW181630   2.999   1.610   7.029
26541SOL    HW281631   3.092   1.599   7.148
26542SOL     OW81632  11.084   3.463   0.131
26542SOL    HW181633  11.144   3.495   0.198
26542SOL    HW281634  11.086   3.367   0.141
26543SOL     OW81635  10.578   8.366   6.122
26543SOL    HW181636  10.523   8.379   6.199
26543SOL    HW281637  10.649   8.429   6.132
26544SOL     OW81638   1.744   5.410   8.008
26544SOL    HW181639   1.805   5.339   8.029
26544SOL    HW281640   1.677   5.368   7.954
26545SOL     OW81641   7.617   3.202   9.903
26545SOL    HW181642   7.689   3.222   9.843
26545SOL    HW281643   7.545   3.257   9.873
26546SOL     OW81644   3.745   6.688   0.554
26546SOL    HW181645   3.836   6.662   0.538
26546SOL    HW281646   3.750   6.747   0.629
26547SOL     OW81647   5.099   5.175   9.912
26547SOL    HW181648   5.032   5.121   9.953
26547SOL    HW281649   5.099   5.147   9.820
26548SOL     OW81650  10.630   6.924   8.713
26548SOL    HW181651  10.670   6.935   8.626
26548SOL    HW281652  10.544   6.966   8.705
26549SOL     OW81653  10.240   5.632   3.761
26549SOL    HW181654  10.168   5.568   3.759
26549SOL    HW281655  10.215   5.698   3.696
26550SOL     OW81656   1.827   8.264  10.421
26550SOL    HW181657   1.771   8.341  10.422
26550SOL    HW281658   1.800   8.216  10.342
26551SOL     OW81659   6.645  10.549   2.166
26551SOL    HW181660   6.556  10.545   2.200
26551SOL    HW281661   6.656  10.468   2.116
26552SOL     OW81662   9.115   5.379   1.722
26552SOL    HW181663   9.152   5.311   1.665
26552SOL    HW281664   9.032   5.403   1.680
26553SOL     OW81665   0.733  10.111   8.696
26553SOL    HW181666   0.815  10.144   8.660
26553SOL    HW281667   0.676  10.187   8.701
26554SOL     OW81668   6.566   4.738   4.952
26554SOL    HW181669   6.652   4.720   4.991
26554SOL    HW281670   6.524   4.652   4.947
26555SOL     OW81671   0.897   6.537   7.254
26555SOL    HW181672   0.891   6.507   7.345
26555SOL    HW281673   0.970   6.486   7.217
26556SOL     OW81674  10.199   7.658   3.568
26556SOL    HW181675  10.184   7.631   3.658
26556SOL    HW281676  10.291   7.685   3.566
26557SOL     OW81677   0.656   8.406   4.364
26557SOL    HW181678   0.720   8.400   4.435
26557SOL    HW281679   0.676   8.488   4.320
26558SOL     OW81680   1.934   4.379  10.713
26558SOL    HW181681   1.917   4.288  10.687
26558SOL    HW281682   1.847   4.415  10.732
26559SOL     OW81683   1.277   4.737   3.673
26559SOL    HW181684   1.334   4.812   3.690
26559SOL    HW281685   1.291   4.716   3.580
26560SOL     OW81686  10.375   0.631   1.655
26560SOL    HW181687  10.466   0.607   1.638
26560SOL    HW281688  10.347   0.572   1.725
26561SOL     OW81689   8.754   9.350   9.660
26561SOL    HW181690   8.755   9.438   9.698
26561SOL    HW281691   8.831   9.347   9.603
26562SOL     OW81692   0.910   2.202   0.938
26562SOL    HW181693   0.982   2.190   0.876
26562SOL    HW281694   0.883   2.113   0.961
26563SOL     OW81695   6.797   6.699   9.728
26563SOL    HW181696   6.804   6.792   9.750
26563SOL    HW281697   6.723   6.694   9.667
26564SOL     OW81698   4.484   0.102  10.088
26564SOL    HW181699   4.390   0.105  10.073
26564SOL    HW281700   4.496   0.148  10.171
26565SOL     OW81701   5.542   3.167   9.943
26565SOL    HW181702   5.516   3.252   9.908
26565SOL    HW281703   5.637   3.172   9.950
26566SOL     OW81704   5.671   6.839   6.637
26566SOL    HW181705   5.590   6.889   6.635
26566SOL    HW281706   5.708   6.849   6.549
26567SOL     OW81707   1.224  11.030   2.717
26567SOL    HW181708   1.233  11.081   2.636
26567SOL    HW281709   1.228  11.095   2.787
26568SOL     OW81710   6.952   2.127   1.182
26568SOL    HW181711   6.864   2.151   1.155
26568SOL    HW281712   7.006   2.203   1.160
26569SOL     OW81713   6.579   7.735   0.543
26569SOL    HW181714   6.578   7.759   0.635
26569SOL    HW281715   6.517   7.662   0.536
26570SOL     OW81716   6.399   3.596   8.341
26570SOL    HW181717   6.356   3.658   8.282
26570SOL    HW281718   6.482   3.638   8.364
26571SOL     OW81719   7.880   9.714   9.994
26571SOL    HW181720   7.915   9.800  10.015
26571SOL    HW281721   7.931   9.685   9.918
26572SOL     OW81722   5.295   4.513  10.573
26572SOL    HW181723   5.325   4.422  10.569
26572SOL    HW281724   5.357   4.556  10.631
26573SOL     OW81725   1.698   5.799   9.199
26573SOL    HW181726   1.727   5.729   9.140
26573SOL    HW281727   1.776   5.852   9.214
26574SOL     OW81728  10.618   3.314   4.516
26574SOL    HW181729  10.670   3.235   4.530
26574SOL    HW281730  10.560   3.292   4.443
26575SOL     OW81731   8.486   9.145   6.170
26575SOL    HW181732   8.502   9.160   6.263
26575SOL    HW281733   8.570   9.164   6.128
26576SOL     OW81734  10.604   8.360   9.945
26576SOL    HW181735  10.563   8.367  10.031
26576SOL    HW281736  10.590   8.269   9.919
26577SOL     OW81737   7.831  10.664   9.722
26577SOL    HW181738   7.860  10.748   9.687
26577SOL    HW281739   7.736  10.671   9.725
26578SOL     OW81740   4.552  10.055   0.531
26578SOL    HW181741   4.628  10.113   0.540
26578SOL    HW281742   4.577   9.994   0.461
26579SOL     OW81743   7.237   5.574   2.933
26579SOL    HW181744   7.169   5.507   2.932
26579SOL    HW281745   7.261   5.583   3.025
26580SOL     OW81746  10.665   8.386   2.097
26580SOL    HW181747  10.617   8.410   2.018
26580SOL    HW281748  10.636   8.449   2.163
26581SOL     OW81749   0.174   5.493   1.169
26581SOL    HW181750   0.100   5.437   1.146
26581SOL    HW281751   0.230   5.438   1.224
26582SOL     OW81752   6.464   2.480   9.020
26582SOL    HW181753   6.424   2.504   8.936
26582SOL    HW281754   6.399   2.504   9.085
26583SOL     OW81755   9.714   5.359  10.761
26583SOL    HW181756   9.720   5.268  10.792
26583SOL    HW281757   9.676   5.407  10.834
26584SOL     OW81758   6.508   2.340   7.717
26584SOL    HW181759   6.581   2.352   7.656
26584SOL    HW281760   6.476   2.251   7.699
26585SOL     OW81761   4.126   7.685  11.046
26585SOL    HW181762   4.115   7.657  10.955
26585SOL    HW281763   4.184   7.619  11.084
26586SOL     OW81764   3.853   0.122   1.445
26586SOL    HW181765   3.839   0.029   1.426
26586SOL    HW281766   3.828   0.167   1.364
26587SOL     OW81767   7.063   7.696   4.726
26587SOL    HW181768   7.046   7.760   4.794
26587SOL    HW281769   7.032   7.613   4.762
26588SOL     OW81770   9.102   5.225   7.204
26588SOL    HW181771   9.107   5.219   7.108
26588SOL    HW281772   9.141   5.143   7.235
26589SOL     OW81773   3.170  10.485  11.011
26589SOL    HW181774   3.247  10.495  10.955
26589SOL    HW281775   3.205  10.481  11.100
26590SOL     OW81776   6.018   6.897   3.917
26590SOL    HW181777   6.112   6.881   3.923
26590SOL    HW281778   5.988   6.832   3.853
26591SOL     OW81779   3.101   8.717   6.471
26591SOL    HW181780   3.154   8.787   6.434
26591SOL    HW281781   3.161   8.643   6.479
26592SOL     OW81782   7.857   5.418   3.843
26592SOL    HW181783   7.781   5.381   3.888
26592SOL    HW281784   7.931   5.398   3.900
26593SOL     OW81785   0.572   5.362  10.697
26593SOL    HW181786   0.515   5.285  10.691
26593SOL    HW281787   0.526   5.422  10.754
26594SOL     OW81788   8.372   0.654   6.541
26594SOL    HW181789   8.312   0.653   6.466
26594SOL    HW281790   8.407   0.565   6.545
26595SOL     OW81791   0.894   4.711   4.467
26595SOL    HW181792   0.933   4.775   4.407
26595SOL    HW281793   0.960   4.641   4.474
26596SOL     OW81794   7.961   3.017   7.332
26596SOL    HW181795   7.928   3.061   7.253
26596SOL    HW281796   8.043   3.062   7.352
26597SOL     OW81797   8.917   4.540   7.942
26597SOL    HW181798   8.837   4.548   7.889
26597SOL    HW281799   8.953   4.454   7.917
26598SOL     OW81800  10.494   7.393   4.229
26598SOL    HW181801  10.506   7.481   4.263
26598SOL    HW281802  10.474   7.405   4.136
26599SOL     OW81803   6.485   0.002   0.118
26599SOL    HW181804   6.427   0.057   0.170
26599SOL    HW281805   6.551  -0.029   0.181
26600SOL     OW81806   0.199   0.482   0.133
26600SOL    HW181807   0.208   0.399   0.181
26600SOL    HW281808   0.286   0.520   0.135
26601SOL     OW81809   7.179   6.893   1.735
26601SOL    HW181810   7.137   6.957   1.792
26601SOL    HW281811   7.140   6.909   1.649
26602SOL     OW81812  10.304   0.452   8.247
26602SOL    HW181813  10.331   0.380   8.304
26602SOL    HW281814  10.386   0.496   8.224
26603SOL     OW81815   5.565   6.208   3.821
26603SOL    HW181816   5.649   6.177   3.854
26603SOL    HW281817   5.518   6.238   3.898
26604SOL     OW81818   7.759   6.166   5.525
26604SOL    HW181819   7.707   6.186   5.602
26604SOL    HW281820   7.803   6.248   5.503
26605SOL     OW81821   5.926   0.965   4.206
26605SOL    HW181822   5.949   1.018   4.130
26605SOL    HW281823   5.998   0.902   4.214
26606SOL     OW81824   8.720   8.646   1.751
26606SOL    HW181825   8.776   8.697   1.692
26606SOL    HW281826   8.632   8.654   1.713
26607SOL     OW81827   9.976   8.325   3.442
26607SOL    HW181828   9.882   8.334   3.427
26607SOL    HW281829  10.012   8.412   3.426
26608SOL     OW81830   4.220  10.375   8.312
26608SOL    HW181831   4.291  10.366   8.248
26608SOL    HW281832   4.141  10.350   8.264
26609SOL     OW81833  10.268   1.396   6.754
26609SOL    HW181834  10.245   1.304   6.767
26609SOL    HW281835  10.304   1.424   6.838
26610SOL     OW81836   5.903   3.257   8.874
26610SOL    HW181837   5.995   3.242   8.853
26610SOL    HW281838   5.866   3.169   8.881
26611SOL     OW81839   9.542   8.057   4.599
26611SOL    HW181840   9.629   8.018   4.586
26611SOL    HW281841   9.483   7.982   4.603
26612SOL     OW81842   6.358   7.713   5.378
26612SOL    HW181843   6.417   7.709   5.302
26612SOL    HW281844   6.363   7.803   5.407
26613SOL     OW81845  10.185   1.197   3.640
26613SOL    HW181846  10.178   1.122   3.581
26613SOL    HW281847  10.182   1.273   3.582
26614SOL     OW81848   5.016   1.672  10.041
26614SOL    HW181849   5.002   1.726   9.963
26614SOL    HW281850   5.107   1.642  10.033
26615SOL     OW81851   0.679   7.651   9.223
26615SOL    HW181852   0.653   7.674   9.134
26615SOL    HW281853   0.600   7.615   9.262
26616SOL     OW81854  10.266   4.663   2.083
26616SOL    HW181855  10.343   4.634   2.132
26616SOL    HW281856  10.202   4.593   2.095
26617SOL     OW81857   9.398   9.768   4.716
26617SOL    HW181858   9.394   9.704   4.644
26617SOL    HW281859   9.454   9.838   4.682
26618SOL     OW81860   7.365   8.152   4.293
26618SOL    HW181861   7.292   8.197   4.251
26618SOL    HW281862   7.385   8.079   4.234
26619SOL     OW81863   5.021   8.025   1.931
26619SOL    HW181864   4.968   8.044   1.853
26619SOL    HW281865   5.061   7.940   1.911
26620SOL     OW81866   5.286   5.727   0.705
26620SOL    HW181867   5.368   5.705   0.661
26620SOL    HW281868   5.281   5.664   0.777
26621SOL     OW81869   8.726   8.979  10.359
26621SOL    HW181870   8.633   8.962  10.376
26621SOL    HW281871   8.734   8.972  10.264
26622SOL     OW81872   3.051   9.776   5.343
26622SOL    HW181873   3.072   9.853   5.395
26622SOL    HW281874   3.133   9.727   5.339
26623SOL     OW81875   5.892   3.706   2.591
26623SOL    HW181876   5.918   3.666   2.507
26623SOL    HW281877   5.934   3.651   2.657
26624SOL     OW81878   4.073   3.396   7.634
26624SOL    HW181879   4.031   3.427   7.554
26624SOL    HW281880   4.044   3.305   7.642
26625SOL     OW81881  10.566   0.077   4.865
26625SOL    HW181882  10.564   0.082   4.769
26625SOL    HW281883  10.533  -0.011   4.884
26626SOL     OW81884   8.299   5.968   6.267
26626SOL    HW181885   8.299   5.874   6.246
26626SOL    HW281886   8.380   5.981   6.317
26627SOL     OW81887   2.065   7.793   7.167
26627SOL    HW181888   2.144   7.739   7.163
26627SOL    HW281889   2.096   7.878   7.197
26628SOL     OW81890   0.913   7.186   8.522
26628SOL    HW181891   0.884   7.180   8.613
26628SOL    HW281892   1.008   7.199   8.528
26629SOL     OW81893   6.023   6.952   8.980
26629SOL    HW181894   6.059   6.870   8.946
26629SOL    HW281895   6.071   6.968   9.061
26630SOL     OW81896   4.596   5.739   1.476
26630SOL    HW181897   4.661   5.677   1.442
26630SOL    HW281898   4.627   5.760   1.564
26631SOL     OW81899   2.578   6.317   2.306
26631SOL    HW181900   2.549   6.354   2.389
26631SOL    HW281901   2.604   6.393   2.254
26632SOL     OW81902   5.491   4.008   3.875
26632SOL    HW181903   5.504   3.955   3.796
26632SOL    HW281904   5.579   4.015   3.913
26633SOL     OW81905   2.127   8.834   2.132
26633SOL    HW181906   2.142   8.928   2.131
26633SOL    HW281907   2.049   8.821   2.078
26634SOL     OW81908   7.153   7.022  10.689
26634SOL    HW181909   7.154   7.087  10.759
26634SOL    HW281910   7.126   6.940  10.732
26635SOL     OW81911   4.578   3.093   1.629
26635SOL    HW181912   4.487   3.115   1.608
26635SOL    HW281913   4.627   3.115   1.549
26636SOL     OW81914   9.518   8.079   4.899
26636SOL    HW181915   9.495   8.102   4.809
26636SOL    HW281916   9.506   7.984   4.903
26637SOL     OW81917   0.240   9.848   6.966
26637SOL    HW181918   0.199   9.822   7.048
26637SOL    HW281919   0.168   9.850   6.903
26638SOL     OW81920  10.021   6.779   8.857
26638SOL    HW181921   9.996   6.783   8.949
26638SOL    HW281922  10.079   6.854   8.844
26639SOL     OW81923   4.654   8.474   0.392
26639SOL    HW181924   4.709   8.538   0.347
26639SOL    HW281925   4.564   8.504   0.378
26640SOL     OW81926   8.160   7.111   6.526
26640SOL    HW181927   8.104   7.034   6.540
26640SOL    HW281928   8.110   7.184   6.560
26641SOL     OW81929   7.025   2.474   4.535
26641SOL    HW181930   7.084   2.547   4.518
26641SOL    HW281931   6.947   2.494   4.483
26642SOL     OW81932   6.987   7.034   9.253
26642SOL    HW181933   6.998   7.129   9.249
26642SOL    HW281934   6.967   7.016   9.344
26643SOL     OW81935   5.410   6.558   6.296
26643SOL    HW181936   5.420   6.652   6.311
26643SOL    HW281937   5.489   6.532   6.248
26644SOL     OW81938   6.153   8.442   2.621
26644SOL    HW181939   6.126   8.519   2.671
26644SOL    HW281940   6.196   8.477   2.543
26645SOL     OW81941   6.866  10.329   0.968
26645SOL    HW181942   6.947  10.278   0.970
26645SOL    HW281943   6.895  10.420   0.970
26646SOL     OW81944   9.204   8.406   7.500
26646SOL    HW181945   9.202   8.352   7.421
26646SOL    HW281946   9.193   8.344   7.572
26647SOL     OW81947   8.822   9.742   0.106
26647SOL    HW181948   8.777   9.762   0.188
26647SOL    HW281949   8.890   9.679   0.131
26648SOL     OW81950   5.868   6.955   3.567
26648SOL    HW181951   5.905   6.875   3.605
26648SOL    HW281952   5.774   6.947   3.581
26649SOL     OW81953   3.751   9.723   7.201
26649SOL    HW181954   3.682   9.752   7.261
26649SOL    HW281955   3.707   9.663   7.141
26650SOL     OW81956   3.185   4.863   0.370
26650SOL    HW181957   3.141   4.811   0.437
26650SOL    HW281958   3.256   4.807   0.339
26651SOL     OW81959   7.705   3.777   0.742
26651SOL    HW181960   7.640   3.758   0.810
26651SOL    HW281961   7.771   3.708   0.752
26652SOL     OW81962   0.581   9.626   9.436
26652SOL    HW181963   0.642   9.675   9.381
26652SOL    HW281964   0.534   9.693   9.486
26653SOL     OW81965   2.656   8.858   8.666
26653SOL    HW181966   2.629   8.778   8.620
26653SOL    HW281967   2.702   8.826   8.743
26654SOL     OW81968   2.645   7.728   9.678
26654SOL    HW181969   2.634   7.789   9.751
26654SOL    HW281970   2.646   7.641   9.719
26655SOL     OW81971   5.037   4.534   2.493
26655SOL    HW181972   4.976   4.585   2.546
26655SOL    HW281973   4.987   4.456   2.468
26656SOL     OW81974  10.256   1.556   7.960
26656SOL    HW181975  10.197   1.613   8.009
26656SOL    HW281976  10.297   1.501   8.026
26657SOL     OW81977   6.717   0.819   0.471
26657SOL    HW181978   6.626   0.847   0.470
26657SOL    HW281979   6.719   0.747   0.534
26658SOL     OW81980   7.379   3.361   0.881
26658SOL    HW181981   7.284   3.364   0.892
26658SOL    HW281982   7.400   3.267   0.879
26659SOL     OW81983   7.843   6.162   9.972
26659SOL    HW181984   7.805   6.085  10.014
26659SOL    HW281985   7.796   6.236  10.010
26660SOL     OW81986   3.339   9.538   6.651
26660SOL    HW181987   3.377   9.524   6.564
26660SOL    HW281988   3.247   9.515   6.641
26661SOL     OW81989   7.046  10.946   3.659
26661SOL    HW181990   6.972  11.001   3.684
26661SOL    HW281991   7.024  10.915   3.571
26662SOL     OW81992   6.307   0.582   0.555
26662SOL    HW181993   6.378   0.577   0.619
26662SOL    HW281994   6.330   0.517   0.488
26663SOL     OW81995   7.227   1.850   9.937
26663SOL    HW181996   7.288   1.850  10.010
26663SOL    HW281997   7.281   1.875   9.861
26664SOL     OW81998   5.638   7.618   2.914
26664SOL    HW181999   5.588   7.665   2.980
26664SOL    HW282000   5.593   7.638   2.831
26665SOL     OW82001   6.151   2.035   4.245
26665SOL    HW182002   6.134   1.987   4.326
26665SOL    HW282003   6.155   2.126   4.272
26666SOL     OW82004   6.934   5.576   7.580
26666SOL    HW182005   6.958   5.632   7.653
26666SOL    HW282006   6.845   5.548   7.599
26667SOL     OW82007   9.146   5.152   5.605
26667SOL    HW182008   9.078   5.085   5.610
26667SOL    HW282009   9.178   5.161   5.695
26668SOL     OW82010   7.914   0.112   1.318
26668SOL    HW182011   7.980   0.102   1.386
26668SOL    HW282012   7.961   0.093   1.237
26669SOL     OW82013   5.872   8.646   3.136
26669SOL    HW182014   5.850   8.725   3.088
26669SOL    HW282015   5.946   8.670   3.191
26670SOL     OW82016   5.014   9.717   9.731
26670SOL    HW182017   4.944   9.652   9.721
26670SOL    HW282018   5.091   9.665   9.753
26671SOL     OW82019   6.787   7.530   0.690
26671SOL    HW182020   6.736   7.523   0.771
26671SOL    HW282021   6.762   7.614   0.652
26672SOL     OW82022   5.299   6.597   5.030
26672SOL    HW182023   5.350   6.592   5.111
26672SOL    HW282024   5.322   6.517   4.983
26673SOL     OW82025  10.690   7.118   0.266
26673SOL    HW182026  10.754   7.050   0.289
26673SOL    HW282027  10.743   7.193   0.240
26674SOL     OW82028   9.040   9.091   6.038
26674SOL    HW182029   9.125   9.070   6.077
26674SOL    HW282030   8.987   9.012   6.052
26675SOL     OW82031   8.974   6.701   1.388
26675SOL    HW182032   8.998   6.633   1.324
26675SOL    HW282033   8.913   6.657   1.447
26676SOL     OW82034   6.386   5.815   0.696
26676SOL    HW182035   6.330   5.825   0.619
26676SOL    HW282036   6.474   5.838   0.665
26677SOL     OW82037  10.957   7.991   3.087
26677SOL    HW182038  10.993   7.902   3.078
26677SOL    HW282039  10.864   7.981   3.069
26678SOL     OW82040   7.106   9.580   9.141
26678SOL    HW182041   7.083   9.661   9.096
26678SOL    HW282042   7.188   9.552   9.100
26679SOL     OW82043   3.160   8.671  10.210
26679SOL    HW182044   3.168   8.746  10.269
26679SOL    HW282045   3.074   8.633  10.230
26680SOL     OW82046   4.788   4.432   6.395
26680SOL    HW182047   4.820   4.411   6.307
26680SOL    HW282048   4.785   4.527   6.397
26681SOL     OW82049   6.051   7.460   8.032
26681SOL    HW182050   6.058   7.522   7.959
26681SOL    HW282051   6.134   7.412   8.031
26682SOL     OW82052   6.320   5.111  10.778
26682SOL    HW182053   6.402   5.148  10.810
26682SOL    HW282054   6.257   5.129  10.847
26683SOL     OW82055   4.703   0.878   2.690
26683SOL    HW182056   4.642   0.919   2.628
26683SOL    HW282057   4.780   0.857   2.637
26684SOL     OW82058   1.379   6.065   5.234
26684SOL    HW182059   1.324   5.999   5.277
26684SOL    HW282060   1.455   6.016   5.203
26685SOL     OW82061   6.128   6.948  10.518
26685SOL    HW182062   6.138   7.032  10.473
26685SOL    HW282063   6.217   6.921  10.539
26686SOL     OW82064   4.470   5.395   2.776
26686SOL    HW182065   4.459   5.400   2.681
26686SOL    HW282066   4.462   5.485   2.806
26687SOL     OW82067   7.839   8.564  10.770
26687SOL    HW182068   7.879   8.477  10.781
26687SOL    HW282069   7.876   8.597  10.688
26688SOL     OW82070   5.727   9.235   6.081
26688SOL    HW182071   5.691   9.323   6.075
26688SOL    HW282072   5.653   9.180   6.107
26689SOL     OW82073   9.897   0.249   3.871
26689SOL    HW182074   9.985   0.215   3.854
26689SOL    HW282075   9.849   0.234   3.789
26690SOL     OW82076   7.797   0.444   3.379
26690SOL    HW182077   7.862   0.453   3.448
26690SOL    HW282078   7.762   0.532   3.366
26691SOL     OW82079   4.635  11.032   7.325
26691SOL    HW182080   4.542  11.010   7.326
26691SOL    HW282081   4.655  11.045   7.232
26692SOL     OW82082   0.396   1.966   9.465
26692SOL    HW182083   0.372   2.011   9.384
26692SOL    HW282084   0.467   2.018   9.501
26693SOL     OW82085   4.864   9.168   7.852
26693SOL    HW182086   4.809   9.198   7.779
26693SOL    HW282087   4.902   9.086   7.821
26694SOL     OW82088   8.908   4.319   2.823
26694SOL    HW182089   8.831   4.341   2.770
26694SOL    HW282090   8.972   4.285   2.760
26695SOL     OW82091   3.235   8.141   1.592
26695SOL    HW182092   3.152   8.094   1.589
26695SOL    HW282093   3.273   8.126   1.505
26696SOL     OW82094   4.745   3.377   4.754
26696SOL    HW182095   4.689   3.453   4.743
26696SOL    HW282096   4.704   3.309   4.700
26697SOL     OW82097  10.352   0.756  10.439
26697SOL    HW182098  10.356   0.849  10.417
26697SOL    HW282099  10.405   0.713  10.371
26698SOL     OW82100   9.927   5.314   0.672
26698SOL    HW182101   9.911   5.219   0.672
26698SOL    HW282102  10.005   5.325   0.726
26699SOL     OW82103  10.158   4.758   2.712
26699SOL    HW182104  10.098   4.824   2.677
26699SOL    HW282105  10.133   4.749   2.804
26700SOL     OW82106   3.973   7.774  10.409
26700SOL    HW182107   4.017   7.725  10.339
26700SOL    HW282108   3.942   7.706  10.469
26701SOL     OW82109   2.768   9.212   8.455
26701SOL    HW182110   2.813   9.221   8.371
26701SOL    HW282111   2.675   9.212   8.432
26702SOL     OW82112   9.263   0.715   1.170
26702SOL    HW182113   9.180   0.762   1.180
26702SOL    HW282114   9.330   0.783   1.175
26703SOL     OW82115   5.116   6.136   3.847
26703SOL    HW182116   5.165   6.172   3.921
26703SOL    HW282117   5.026   6.127   3.879
26704SOL     OW82118   7.794   8.260   5.353
26704SOL    HW182119   7.862   8.272   5.286
26704SOL    HW282120   7.835   8.204   5.419
26705SOL     OW82121   3.439   8.952   1.944
26705SOL    HW182122   3.440   9.045   1.921
26705SOL    HW282123   3.511   8.914   1.894
26706SOL     OW82124   4.361   8.897   7.082
26706SOL    HW182125   4.357   8.821   7.024
26706SOL    HW282126   4.430   8.952   7.044
26707SOL     OW82127   9.036   4.145   8.683
26707SOL    HW182128   9.079   4.160   8.598
26707SOL    HW282129   9.069   4.215   8.739
26708SOL     OW82130  10.568   9.588   0.102
26708SOL    HW182131  10.653   9.633   0.101
26708SOL    HW282132  10.588   9.498   0.075
26709SOL     OW82133   9.656   8.269   0.038
26709SOL    HW182134   9.657   8.326   0.115
26709SOL    HW282135   9.695   8.321  -0.032
26710SOL     OW82136   7.969   5.869   1.830
26710SOL    HW182137   7.926   5.841   1.749
26710SOL    HW282138   7.952   5.797   1.891
26711SOL     OW82139   6.996   7.566   2.131
26711SOL    HW182140   6.942   7.629   2.179
26711SOL    HW282141   7.034   7.616   2.059
26712SOL     OW82142   5.865   3.708   3.208
26712SOL    HW182143   5.772   3.693   3.223
26712SOL    HW282144   5.872   3.801   3.189
26713SOL     OW82145   1.539   9.307   0.019
26713SOL    HW182146   1.557   9.371   0.088
26713SOL    HW282147   1.457   9.336  -0.019
26714SOL     OW82148   7.589   7.465   8.018
26714SOL    HW182149   7.677   7.456   7.981
26714SOL    HW282150   7.544   7.384   7.991
26715SOL     OW82151   9.945   4.175   1.141
26715SOL    HW182152   9.975   4.227   1.215
26715SOL    HW282153  10.007   4.195   1.071
26716SOL     OW82154   3.905   2.670   8.915
26716SOL    HW182155   3.849   2.716   8.977
26716SOL    HW282156   3.865   2.583   8.907
26717SOL     OW82157  11.021   9.997  10.464
26717SOL    HW182158  10.942  10.016  10.413
26717SOL    HW282159  11.093  10.010  10.402
26718SOL     OW82160   5.687   7.499  10.324
26718SOL    HW182161   5.598   7.473  10.299
26718SOL    HW282162   5.679   7.590  10.351
26719SOL     OW82163   9.150   2.029   8.402
26719SOL    HW182164   9.179   2.112   8.439
26719SOL    HW282165   9.175   1.964   8.467
26720SOL     OW82166   6.019   6.011  10.474
26720SOL    HW182167   6.089   6.045  10.529
26720SOL    HW282168   6.028   5.916  10.480
26721SOL     OW82169   5.775   4.923   7.820
26721SOL    HW182170   5.682   4.946   7.819
26721SOL    HW282171   5.789   4.876   7.737
26722SOL     OW82172   8.161   0.590   4.527
26722SOL    HW182173   8.114   0.603   4.609
26722SOL    HW282174   8.251   0.616   4.546
26723SOL     OW82175   7.944   6.528   7.745
26723SOL    HW182176   7.971   6.516   7.836
26723SOL    HW282177   8.016   6.576   7.705
26724SOL     OW82178   0.615  11.058   3.623
26724SOL    HW182179   0.566  10.976   3.616
26724SOL    HW282180   0.556  11.124   3.587
26725SOL     OW82181   0.328   9.253  10.073
26725SOL    HW182182   0.259   9.187  10.058
26725SOL    HW282183   0.404   9.202  10.100
26726SOL     OW82184   3.162   8.629   7.641
26726SOL    HW182185   3.224   8.686   7.595
26726SOL    HW282186   3.132   8.568   7.573
26727SOL     OW82187   8.723   6.909   8.121
26727SOL    HW182188   8.796   6.971   8.120
26727SOL    HW282189   8.650   6.957   8.082
26728SOL     OW82190   8.632   9.427   4.741
26728SOL    HW182191   8.727   9.414   4.743
26728SOL    HW282192   8.619   9.513   4.779
26729SOL     OW82193   9.972   9.711   3.560
26729SOL    HW182194   9.949   9.804   3.560
26729SOL    HW282195   9.982   9.689   3.467
26730SOL     OW82196   9.493   9.873   7.328
26730SOL    HW182197   9.412   9.891   7.281
26730SOL    HW282198   9.538   9.808   7.274
26731SOL     OW82199   6.483   8.421   3.708
26731SOL    HW182200   6.528   8.355   3.655
26731SOL    HW282201   6.549   8.490   3.720
26732SOL     OW82202   9.219   3.070   6.032
26732SOL    HW182203   9.203   3.133   5.962
26732SOL    HW282204   9.144   3.079   6.090
26733SOL     OW82205   9.086   7.940   8.548
26733SOL    HW182206   9.022   8.010   8.557
26733SOL    HW282207   9.043   7.876   8.491
26734SOL     OW82208   7.240   4.740   2.565
26734SOL    HW182209   7.328   4.741   2.602
26734SOL    HW282210   7.233   4.654   2.523
26735SOL     OW82211   0.350  10.054   4.971
26735SOL    HW182212   0.416  10.037   4.903
26735SOL    HW282213   0.380  10.005   5.047
26736SOL     OW82214   6.750   1.178   0.246
26736SOL    HW182215   6.810   1.251   0.234
26736SOL    HW282216   6.806   1.105   0.273
26737SOL     OW82217   3.321  10.377   1.280
26737SOL    HW182218   3.319  10.472   1.292
26737SOL    HW282219   3.375  10.345   1.352
26738SOL     OW82220   7.843  10.720   2.925
26738SOL    HW182221   7.770  10.706   2.985
26738SOL    HW282222   7.816  10.678   2.843
26739SOL     OW82223   0.141   5.152   2.813
26739SOL    HW182224   0.093   5.175   2.733
26739SOL    HW282225   0.088   5.188   2.884
26740SOL     OW82226   2.724  10.204   0.162
26740SOL    HW182227   2.819  10.216   0.161
26740SOL    HW282228   2.691  10.275   0.217
26741SOL     OW82229   6.733   3.468   6.750
26741SOL    HW182230   6.731   3.467   6.654
26741SOL    HW282231   6.697   3.553   6.774
26742SOL     OW82232   3.746  10.830   9.364
26742SOL    HW182233   3.785  10.849   9.278
26742SOL    HW282234   3.795  10.885   9.425
26743SOL     OW82235   4.768   3.598   5.335
26743SOL    HW182236   4.760   3.536   5.262
26743SOL    HW282237   4.725   3.677   5.304
26744SOL     OW82238   9.359   0.128   9.605
26744SOL    HW182239   9.373   0.218   9.578
26744SOL    HW282240   9.430   0.079   9.562
26745SOL     OW82241  10.266   1.910   6.772
26745SOL    HW182242  10.318   1.830   6.779
26745SOL    HW282243  10.280   1.939   6.682
26746SOL     OW82244   7.082   8.002   3.326
26746SOL    HW182245   7.000   8.041   3.354
26746SOL    HW282246   7.058   7.947   3.251
26747SOL     OW82247   9.112   9.264   4.038
26747SOL    HW182248   9.094   9.350   4.075
26747SOL    HW282249   9.060   9.262   3.957
26748SOL     OW82250   6.678   1.161   0.661
26748SOL    HW182251   6.647   1.247   0.688
26748SOL    HW282252   6.607   1.101   0.684
26749SOL     OW82253   2.287   8.767   4.429
26749SOL    HW182254   2.281   8.862   4.438
26749SOL    HW282255   2.351   8.753   4.358
26750SOL     OW82256  10.359   7.227   9.109
26750SOL    HW182257  10.396   7.312   9.132
26750SOL    HW282258  10.435   7.168   9.106
26751SOL     OW82259   3.960   9.295   8.024
26751SOL    HW182260   3.899   9.357   8.063
26751SOL    HW282261   3.914   9.211   8.028
26752SOL     OW82262   4.637   3.225   3.233
26752SOL    HW182263   4.680   3.147   3.269
26752SOL    HW282264   4.698   3.256   3.166
26753SOL     OW82265   8.069  10.482   9.306
26753SOL    HW182266   7.995  10.482   9.245
26753SOL    HW282267   8.139  10.437   9.258
26754SOL     OW82268   3.378  10.836   6.184
26754SOL    HW182269   3.443  10.852   6.252
26754SOL    HW282270   3.294  10.840   6.229
26755SOL     OW82271  10.444   6.767   3.179
26755SOL    HW182272  10.431   6.748   3.086
26755SOL    HW282273  10.422   6.859   3.188
26756SOL     OW82274   6.937   4.619   9.051
26756SOL    HW182275   6.957   4.661   9.134
26756SOL    HW282276   6.962   4.683   8.984
26757SOL     OW82277   6.504   7.094   8.440
26757SOL    HW182278   6.418   7.060   8.414
26757SOL    HW282279   6.490   7.187   8.454
26758SOL     OW82280   2.684   5.491   1.200
26758SOL    HW182281   2.716   5.542   1.274
26758SOL    HW282282   2.761   5.481   1.143
26759SOL     OW82283   2.992   4.178   0.806
26759SOL    HW182284   2.904   4.167   0.769
26759SOL    HW282285   2.985   4.256   0.861
26760SOL     OW82286  10.888   9.704   1.803
26760SOL    HW182287  10.863   9.723   1.893
26760SOL    HW282288  10.911   9.611   1.804
26761SOL     OW82289   5.259   9.032   4.376
26761SOL    HW182290   5.233   8.940   4.369
26761SOL    HW282291   5.256   9.051   4.469
26762SOL     OW82292   9.662  11.053   0.291
26762SOL    HW182293   9.658  11.049   0.195
26762SOL    HW282294   9.575  11.025   0.320
26763SOL     OW82295  10.950   9.483   1.507
26763SOL    HW182296  10.906   9.553   1.554
26763SOL    HW282297  10.905   9.478   1.422
26764SOL     OW82298   5.978  10.365   2.635
26764SOL    HW182299   6.057  10.325   2.598
26764SOL    HW282300   5.906  10.327   2.585
26765SOL     OW82301   5.006   5.519   2.477
26765SOL    HW182302   4.941   5.485   2.415
26765SOL    HW282303   5.018   5.610   2.451
26766SOL     OW82304   9.652   7.447   6.017
26766SOL    HW182305   9.737   7.404   6.028
26766SOL    HW282306   9.605   7.428   6.098
26767SOL     OW82307   5.106   4.458   3.178
26767SOL    HW182308   5.065   4.544   3.170
26767SOL    HW282309   5.120   4.430   3.087
26768SOL     OW82310   9.973   2.711   3.566
26768SOL    HW182311   9.887   2.672   3.552
26768SOL    HW282312  10.023   2.643   3.611
26769SOL     OW82313  10.752   7.263   1.278
26769SOL    HW182314  10.659   7.240   1.269
26769SOL    HW282315  10.795   7.216   1.206
26770SOL     OW82316   6.789   2.596   2.158
26770SOL    HW182317   6.715   2.624   2.211
26770SOL    HW282318   6.750   2.563   2.077
26771SOL     OW82319   2.925  10.188   5.205
26771SOL    HW182320   2.944  10.113   5.149
26771SOL    HW282321   2.848  10.229   5.165
26772SOL     OW82322  10.247  10.469   1.373
26772SOL    HW182323  10.168  10.460   1.427
26772SOL    HW282324  10.233  10.550   1.324
26773SOL     OW82325   3.446   4.732   2.287
26773SOL    HW182326   3.524   4.786   2.278
26773SOL    HW282327   3.457   4.687   2.371
26774SOL     OW82328   9.549   4.768   8.655
26774SOL    HW182329   9.527   4.844   8.601
26774SOL    HW282330   9.628   4.731   8.614
26775SOL     OW82331  10.361   6.214   8.979
26775SOL    HW182332  10.351   6.305   8.953
26775SOL    HW282333  10.335   6.164   8.901
26776SOL     OW82334   9.326   3.578   2.360
26776SOL    HW182335   9.377   3.644   2.407
26776SOL    HW282336   9.363   3.577   2.271
26777SOL     OW82337   6.333  10.298   2.385
26777SOL    HW182338   6.263  10.241   2.417
26777SOL    HW282339   6.354  10.263   2.298
26778SOL     OW82340   9.698   8.591   9.901
26778SOL    HW182341   9.645   8.619   9.975
26778SOL    HW282342   9.635   8.559   9.837
26779SOL     OW82343   7.235   5.900   1.843
26779SOL    HW182344   7.312   5.851   1.872
26779SOL    HW282345   7.161   5.853   1.881
26780SOL     OW82346   9.838   6.957   9.473
26780SOL    HW182347   9.744   6.972   9.465
26780SOL    HW282348   9.863   6.916   9.390
26781SOL     OW82349   7.876   7.611   6.694
26781SOL    HW182350   7.874   7.589   6.600
26781SOL    HW282351   7.952   7.564   6.728
26782SOL     OW82352   4.732   7.573   7.467
26782SOL    HW182353   4.812   7.551   7.419
26782SOL    HW282354   4.751   7.550   7.558
26783SOL     OW82355   5.881  10.526  10.290
26783SOL    HW182356   5.845  10.513  10.202
26783SOL    HW282357   5.949  10.459  10.298
26784SOL     OW82358   5.655   7.319   4.681
26784SOL    HW182359   5.622   7.332   4.769
26784SOL    HW282360   5.577   7.313   4.626
26785SOL     OW82361   7.609   7.513   8.601
26785SOL    HW182362   7.596   7.521   8.506
26785SOL    HW282363   7.526   7.479   8.634
26786SOL     OW82364   3.852   2.873   6.421
26786SOL    HW182365   3.921   2.832   6.473
26786SOL    HW282366   3.785   2.805   6.412
26787SOL     OW82367   7.286   9.832   1.263
26787SOL    HW182368   7.344   9.762   1.233
26787SOL    HW282369   7.221   9.788   1.318
26788SOL     OW82370   3.617   3.043   9.601
26788SOL    HW182371   3.633   3.132   9.632
26788SOL    HW282372   3.687   2.991   9.640
26789SOL     OW82373  10.064   8.945  10.268
26789SOL    HW182374  10.097   9.035  10.270
26789SOL    HW282375  10.068   8.916  10.359
26790SOL     OW82376   6.730   8.365   6.376
26790SOL    HW182377   6.644   8.400   6.397
26790SOL    HW282378   6.749   8.303   6.446
26791SOL     OW82379   8.842   0.413   1.304
26791SOL    HW182380   8.832   0.367   1.220
26791SOL    HW282381   8.936   0.429   1.311
26792SOL     OW82382   9.670   8.629   8.503
26792SOL    HW182383   9.605   8.679   8.454
26792SOL    HW282384   9.620   8.557   8.542
26793SOL     OW82385   9.006   6.287   8.152
26793SOL    HW182386   9.017   6.230   8.228
26793SOL    HW282387   8.923   6.332   8.166
26794SOL     OW82388   5.711   5.695   1.741
26794SOL    HW182389   5.743   5.643   1.667
26794SOL    HW282390   5.761   5.663   1.816
26795SOL     OW82391   6.676   0.377  11.029
26795SOL    HW182392   6.713   0.300  10.986
26795SOL    HW282393   6.610   0.342  11.088
26796SOL     OW82394   0.846  10.753   1.724
26796SOL    HW182395   0.813  10.804   1.650
26796SOL    HW282396   0.932  10.790   1.741
26797SOL     OW82397   7.726   5.213   2.916
26797SOL    HW182398   7.674   5.169   2.983
26797SOL    HW282399   7.664   5.270   2.870
26798SOL     OW82400   2.961   7.263   0.466
26798SOL    HW182401   2.944   7.355   0.445
26798SOL    HW282402   3.039   7.240   0.414
26799SOL     OW82403   0.151   2.710   2.313
26799SOL    HW182404   0.095   2.640   2.348
26799SOL    HW282405   0.234   2.699   2.359
26800SOL     OW82406   1.437   5.979   9.608
26800SOL    HW182407   1.477   5.926   9.677
26800SOL    HW282408   1.509   6.031   9.574
26801SOL     OW82409   7.768  10.078   3.342
26801SOL    HW182410   7.806  10.021   3.408
26801SOL    HW282411   7.840  10.095   3.281
26802SOL     OW82412   8.719   9.451   1.866
26802SOL    HW182413   8.739   9.531   1.817
26802SOL    HW282414   8.790   9.443   1.929
26803SOL     OW82415   4.430  10.088   7.843
26803SOL    HW182416   4.475  10.118   7.922
26803SOL    HW282417   4.435   9.992   7.847
26804SOL     OW82418   0.388   9.880   3.621
26804SOL    HW182419   0.420   9.841   3.539
26804SOL    HW282420   0.305   9.834   3.638
26805SOL     OW82421   5.875   0.802   9.203
26805SOL    HW182422   5.877   0.863   9.276
26805SOL    HW282423   5.951   0.825   9.150
26806SOL     OW82424   6.229  10.685  10.535
26806SOL    HW182425   6.241  10.640  10.451
26806SOL    HW282426   6.298  10.752  10.536
26807SOL     OW82427   5.768   6.538   8.240
26807SOL    HW182428   5.715   6.597   8.293
26807SOL    HW282429   5.743   6.557   8.149
26808SOL     OW82430   0.180   5.845   7.158
26808SOL    HW182431   0.233   5.807   7.088
26808SOL    HW282432   0.177   5.938   7.138
26809SOL     OW82433   3.443   7.931   2.579
26809SOL    HW182434   3.450   7.859   2.642
26809SOL    HW282435   3.351   7.955   2.580
26810SOL     OW82436   7.518   2.907  10.885
26810SOL    HW182437   7.606   2.940  10.865
26810SOL    HW282438   7.510   2.828  10.831
26811SOL     OW82439   6.943   4.475   7.233
26811SOL    HW182440   6.893   4.393   7.232
26811SOL    HW282441   6.877   4.543   7.225
26812SOL     OW82442   0.408   9.442   2.409
26812SOL    HW182443   0.337   9.487   2.363
26812SOL    HW282444   0.375   9.353   2.424
26813SOL     OW82445   6.596   5.667   2.720
26813SOL    HW182446   6.626   5.585   2.759
26813SOL    HW282447   6.582   5.725   2.794
26814SOL     OW82448   5.695  10.160  10.556
26814SOL    HW182449   5.770  10.147  10.614
26814SOL    HW282450   5.621  10.125  10.605
26815SOL     OW82451   1.267   7.179  10.041
26815SOL    HW182452   1.214   7.124  10.099
26815SOL    HW282453   1.229   7.266  10.048
26816SOL     OW82454   9.332   6.542   6.851
26816SOL    HW182455   9.327   6.519   6.943
26816SOL    HW282456   9.317   6.459   6.805
26817SOL     OW82457   1.344   1.606  10.129
26817SOL    HW182458   1.356   1.612  10.223
26817SOL    HW282459   1.425   1.567  10.097
26818SOL     OW82460   4.223   6.716   7.585
26818SOL    HW182461   4.185   6.771   7.516
26818SOL    HW282462   4.172   6.635   7.582
26819SOL     OW82463   4.976   9.993   6.270
26819SOL    HW182464   4.942   9.905   6.250
26819SOL    HW282465   5.036   9.979   6.343
26820SOL     OW82466   3.771   7.883   3.299
26820SOL    HW182467   3.715   7.954   3.330
26820SOL    HW282468   3.855   7.897   3.343
26821SOL     OW82469   3.911   6.511   3.618
26821SOL    HW182470   3.873   6.595   3.644
26821SOL    HW282471   3.848   6.475   3.555
26822SOL     OW82472   4.458   0.225   7.780
26822SOL    HW182473   4.480   0.140   7.819
26822SOL    HW282474   4.368   0.214   7.748
26823SOL     OW82475   1.768   8.559  11.042
26823SOL    HW182476   1.675   8.577  11.035
26823SOL    HW282477   1.809   8.644  11.058
26824SOL     OW82478   0.654  10.076   3.343
26824SOL    HW182479   0.658  10.096   3.436
26824SOL    HW282480   0.714  10.138   3.302
26825SOL     OW82481  10.191   2.993   8.379
26825SOL    HW182482  10.141   2.991   8.297
26825SOL    HW282483  10.280   3.017   8.351
26826SOL     OW82484   9.400   8.667  10.607
26826SOL    HW182485   9.346   8.645  10.531
26826SOL    HW282486   9.350   8.636  10.682
26827SOL     OW82487   7.416  10.297   1.718
26827SOL    HW182488   7.379  10.286   1.630
26827SOL    HW282489   7.403  10.212   1.760
26828SOL     OW82490   0.990   4.256   2.070
26828SOL    HW182491   1.059   4.219   2.015
26828SOL    HW282492   1.000   4.350   2.061
26829SOL     OW82493   6.279   4.614   4.694
26829SOL    HW182494   6.226   4.551   4.645
26829SOL    HW282495   6.221   4.688   4.709
26830SOL     OW82496   6.175   4.528   9.078
26830SOL    HW182497   6.100   4.494   9.029
26830SOL    HW282498   6.200   4.607   9.031
26831SOL     OW82499   9.601   7.289   2.867
26831SOL    HW182500   9.689   7.269   2.833
26831SOL    HW282501   9.594   7.384   2.861
26832SOL     OW82502   1.471   0.149   6.438
26832SOL    HW182503   1.466   0.142   6.533
26832SOL    HW282504   1.514   0.068   6.410
26833SOL     OW82505   4.231   4.510   4.521
26833SOL    HW182506   4.319   4.475   4.508
26833SOL    HW282507   4.198   4.526   4.432
26834SOL     OW82508   9.395   2.702   1.782
26834SOL    HW182509   9.460   2.760   1.821
26834SOL    HW282510   9.375   2.638   1.850
26835SOL     OW82511   8.206   8.578   6.189
26835SOL    HW182512   8.237   8.667   6.207
26835SOL    HW282513   8.277   8.521   6.220
26836SOL     OW82514  10.817   2.845   8.440
26836SOL    HW182515  10.759   2.775   8.411
26836SOL    HW282516  10.836   2.824   8.531
26837SOL     OW82517   8.731   7.360   6.174
26837SOL    HW182518   8.785   7.438   6.183
26837SOL    HW282519   8.668   7.382   6.106
26838SOL     OW82520   7.037   1.235   2.869
26838SOL    HW182521   6.947   1.232   2.900
26838SOL    HW282522   7.065   1.143   2.869
26839SOL     OW82523   4.933  10.943   5.790
26839SOL    HW182524   4.906  10.992   5.712
26839SOL    HW282525   4.853  10.932   5.841
26840SOL     OW82526   8.952   4.507   1.277
26840SOL    HW182527   8.884   4.443   1.299
26840SOL    HW282528   8.961   4.499   1.182
26841SOL     OW82529   3.786   8.773   3.230
26841SOL    HW182530   3.871   8.760   3.272
26841SOL    HW282531   3.723   8.776   3.302
26842SOL     OW82532   2.011   6.666   4.073
26842SOL    HW182533   2.007   6.661   4.168
26842SOL    HW282534   1.938   6.722   4.048
26843SOL     OW82535   4.913   1.808   9.824
26843SOL    HW182536   4.958   1.834   9.743
26843SOL    HW282537   4.852   1.879   9.842
26844SOL     OW82538   6.237   7.359   5.355
26844SOL    HW182539   6.208   7.407   5.277
26844SOL    HW282540   6.278   7.279   5.320
26845SOL     OW82541   6.225   7.470   5.072
26845SOL    HW182542   6.217   7.378   5.046
26845SOL    HW282543   6.308   7.498   5.034
26846SOL     OW82544   8.552   0.754   5.213
26846SOL    HW182545   8.592   0.737   5.127
26846SOL    HW282546   8.590   0.686   5.270
26847SOL     OW82547   6.775   4.038   8.052
26847SOL    HW182548   6.808   3.950   8.070
26847SOL    HW282549   6.745   4.070   8.137
26848SOL     OW82550   8.147   6.448   2.903
26848SOL    HW182551   8.180   6.470   2.816
26848SOL    HW282552   8.200   6.372   2.930
26849SOL     OW82553   8.197   7.186   0.450
26849SOL    HW182554   8.232   7.269   0.418
26849SOL    HW282555   8.203   7.192   0.545
26850SOL     OW82556   8.215   8.471   9.087
26850SOL    HW182557   8.266   8.494   9.164
26850SOL    HW282558   8.248   8.385   9.061
26851SOL     OW82559   8.974   6.978   4.027
26851SOL    HW182560   9.003   7.036   4.097
26851SOL    HW282561   8.879   6.990   4.023
26852SOL     OW82562   8.746   0.434  10.133
26852SOL    HW182563   8.678   0.487  10.091
26852SOL    HW282564   8.799   0.402  10.060
26853SOL     OW82565   4.479   3.138   3.960
26853SOL    HW182566   4.434   3.178   3.885
26853SOL    HW282567   4.425   3.062   3.983
26854SOL     OW82568   0.632   3.321   2.640
26854SOL    HW182569   0.551   3.342   2.594
26854SOL    HW282570   0.604   3.282   2.723
26855SOL     OW82571   1.477   8.554   1.911
26855SOL    HW182572   1.527   8.540   1.830
26855SOL    HW282573   1.400   8.603   1.883
26856SOL     OW82574   9.688   6.547   0.918
26856SOL    HW182575   9.663   6.539   1.010
26856SOL    HW282576   9.725   6.461   0.896
26857SOL     OW82577   7.651   2.326   4.463
26857SOL    HW182578   7.569   2.277   4.459
26857SOL    HW282579   7.643   2.380   4.541
26858SOL     OW82580   2.644   9.464   1.685
26858SOL    HW182581   2.667   9.515   1.607
26858SOL    HW282582   2.728   9.429   1.715
26859SOL     OW82583   0.535   4.740   0.848
26859SOL    HW182584   0.612   4.692   0.879
26859SOL    HW282585   0.550   4.830   0.876
26860SOL     OW82586   6.166   4.244   8.333
26860SOL    HW182587   6.074   4.263   8.352
26860SOL    HW282588   6.163   4.174   8.267
26861SOL     OW82589   8.174   3.957   8.171
26861SOL    HW182590   8.208   3.897   8.237
26861SOL    HW282591   8.086   3.978   8.201
26862SOL     OW82592   9.339   9.156   0.424
26862SOL    HW182593   9.431   9.129   0.422
26862SOL    HW282594   9.304   9.115   0.503
26863SOL     OW82595   7.680   9.524   1.322
26863SOL    HW182596   7.651   9.444   1.366
26863SOL    HW282597   7.692   9.497   1.231
26864SOL     OW82598  10.091  10.035   6.376
26864SOL    HW182599  10.111  10.016   6.284
26864SOL    HW282600  10.005   9.996   6.390
26865SOL     OW82601   0.701   6.328   2.549
26865SOL    HW182602   0.655   6.347   2.467
26865SOL    HW282603   0.774   6.272   2.523
26866SOL     OW82604  10.115   0.065   2.762
26866SOL    HW182605  10.118   0.019   2.846
26866SOL    HW282606  10.142  -0.001   2.698
26867SOL     OW82607   7.323   7.828   0.274
26867SOL    HW182608   7.252   7.876   0.315
26867SOL    HW282609   7.308   7.837   0.180
26868SOL     OW82610  10.145   4.583   6.879
26868SOL    HW182611  10.142   4.618   6.790
26868SOL    HW282612  10.210   4.637   6.924
26869SOL     OW82613   1.518   4.631   4.270
26869SOL    HW182614   1.504   4.540   4.297
26869SOL    HW282615   1.532   4.679   4.351
26870SOL     OW82616   6.880   7.851   2.912
26870SOL    HW182617   6.945   7.892   2.969
26870SOL    HW282618   6.904   7.880   2.824
26871SOL     OW82619   8.658   9.537   9.159
26871SOL    HW182620   8.659   9.525   9.064
26871SOL    HW282621   8.565   9.545   9.181
26872SOL     OW82622  10.297   7.029   7.708
26872SOL    HW182623  10.323   6.991   7.624
26872SOL    HW282624  10.238   6.964   7.746
26873SOL     OW82625   5.172   8.929   7.162
26873SOL    HW182626   5.252   8.915   7.110
26873SOL    HW282627   5.115   8.855   7.139
26874SOL     OW82628   4.685   4.063   4.150
26874SOL    HW182629   4.593   4.046   4.131
26874SOL    HW282630   4.689   4.071   4.245
26875SOL     OW82631   6.049   3.652   2.393
26875SOL    HW182632   6.140   3.627   2.410
26875SOL    HW282633   6.055   3.737   2.350
26876SOL     OW82634   7.705   7.308   9.045
26876SOL    HW182635   7.751   7.249   8.985
26876SOL    HW282636   7.701   7.391   8.998
26877SOL     OW82637   9.617   6.171   1.183
26877SOL    HW182638   9.524   6.180   1.163
26877SOL    HW282639   9.621   6.100   1.247
26878SOL     OW82640   4.995   8.012   0.347
26878SOL    HW182641   4.938   8.062   0.289
26878SOL    HW282642   5.063   7.977   0.289
26879SOL     OW82643   2.449   4.526   7.967
26879SOL    HW182644   2.538   4.502   7.994
26879SOL    HW282645   2.454   4.533   7.871
26880SOL     OW82646   7.801   8.209   4.572
26880SOL    HW182647   7.791   8.283   4.512
26880SOL    HW282648   7.894   8.185   4.565
26881SOL     OW82649   8.109   5.846   5.238
26881SOL    HW182650   8.032   5.884   5.280
26881SOL    HW282651   8.155   5.801   5.309
26882SOL     OW82652   7.048   6.780  10.809
26882SOL    HW182653   6.960   6.742  10.815
26882SOL    HW282654   7.107   6.704  10.810
26883SOL     OW82655   2.433   9.294  10.401
26883SOL    HW182656   2.345   9.300  10.363
26883SOL    HW282657   2.439   9.204  10.434
26884SOL     OW82658   9.947   8.293   8.574
26884SOL    HW182659  10.003   8.278   8.650
26884SOL    HW282660   9.947   8.388   8.563
26885SOL     OW82661   3.404   9.888   0.043
26885SOL    HW182662   3.472   9.889   0.111
26885SOL    HW282663   3.452   9.883  -0.039
26886SOL     OW82664   0.660   6.264   4.969
26886SOL    HW182665   0.754   6.258   4.985
26886SOL    HW282666   0.649   6.233   4.879
26887SOL     OW82667   8.703   3.955   6.966
26887SOL    HW182668   8.703   3.872   6.917
26887SOL    HW282669   8.757   3.937   7.043
26888SOL     OW82670   6.229   2.956   6.094
26888SOL    HW182671   6.219   2.942   5.999
26888SOL    HW282672   6.239   3.050   6.103
26889SOL     OW82673   6.948   6.424   1.699
26889SOL    HW182674   6.968   6.341   1.655
26889SOL    HW282675   7.021   6.438   1.759
26890SOL     OW82676  10.980  10.966   9.373
26890SOL    HW182677  11.010  10.902   9.308
26890SOL    HW282678  11.054  11.025   9.385
26891SOL     OW82679   5.083  10.422   3.733
26891SOL    HW182680   5.135  10.410   3.653
26891SOL    HW282681   5.146  10.452   3.798
26892SOL     OW82682   4.477   9.289   9.126
26892SOL    HW182683   4.548   9.343   9.160
26892SOL    HW282684   4.496   9.201   9.158
26893SOL     OW82685   5.291   9.630   4.401
26893SOL    HW182686   5.288   9.624   4.496
26893SOL    HW282687   5.344   9.554   4.374
26894SOL     OW82688  10.779   7.775   9.793
26894SOL    HW182689  10.711   7.729   9.744
26894SOL    HW282690  10.818   7.834   9.729
26895SOL     OW82691   7.059   8.316   1.384
26895SOL    HW182692   7.039   8.315   1.477
26895SOL    HW282693   6.975   8.299   1.341
26896SOL     OW82694   4.838   9.960   8.273
26896SOL    HW182695   4.791   9.928   8.196
26896SOL    HW282696   4.930   9.961   8.246
26897SOL     OW82697   8.816  10.810   8.601
26897SOL    HW182698   8.758  10.739   8.629
26897SOL    HW282699   8.833  10.860   8.680
26898SOL     OW82700   5.723   6.101   4.057
26898SOL    HW182701   5.684   6.119   4.142
26898SOL    HW282702   5.816   6.119   4.068
26899SOL     OW82703   8.115   5.537   1.153
26899SOL    HW182704   8.119   5.503   1.242
26899SOL    HW282705   8.063   5.617   1.160
26900SOL     OW82706   3.773   1.782   1.304
26900SOL    HW182707   3.862   1.816   1.294
26900SOL    HW282708   3.785   1.694   1.339
26901SOL     OW82709   6.924  10.917   8.435
26901SOL    HW182710   6.947  10.980   8.367
26901SOL    HW282711   6.957  10.956   8.516
26902SOL     OW82712   9.113   8.964   1.809
26902SOL    HW182713   9.063   8.983   1.888
26902SOL    HW282714   9.131   8.870   1.814
26903SOL     OW82715   9.745   3.915   2.750
26903SOL    HW182716   9.725   3.921   2.656
26903SOL    HW282717   9.769   4.004   2.775
26904SOL     OW82718   5.782   6.855   5.777
26904SOL    HW182719   5.865   6.812   5.797
26904SOL    HW282720   5.716   6.789   5.798
26905SOL     OW82721   9.033   7.709   9.503
26905SOL    HW182722   8.950   7.748   9.476
26905SOL    HW282723   9.073   7.679   9.421
26906SOL     OW82724   4.112   0.885   6.918
26906SOL    HW182725   4.080   0.889   6.828
26906SOL    HW282726   4.043   0.925   6.970
26907SOL     OW82727   8.203   1.720  10.501
26907SOL    HW182728   8.155   1.720  10.583
26907SOL    HW282729   8.291   1.690  10.524
26908SOL     OW82730   6.609   8.930   3.938
26908SOL    HW182731   6.627   8.907   4.029
26908SOL    HW282732   6.579   9.021   3.941
26909SOL     OW82733   5.019   8.503   6.322
26909SOL    HW182734   5.008   8.578   6.264
26909SOL    HW282735   5.083   8.532   6.387
26910SOL     OW82736   6.687   9.574   2.911
26910SOL    HW182737   6.692   9.612   2.998
26910SOL    HW282738   6.619   9.507   2.918
26911SOL     OW82739   2.272   8.502   3.716
26911SOL    HW182740   2.316   8.455   3.787
26911SOL    HW282741   2.179   8.500   3.740
26912SOL     OW82742   8.380   9.074   1.086
26912SOL    HW182743   8.342   9.158   1.109
26912SOL    HW282744   8.314   9.032   1.031
26913SOL     OW82745   3.210   0.174   8.741
26913SOL    HW182746   3.244   0.263   8.749
26913SOL    HW282747   3.264   0.134   8.672
26914SOL     OW82748   3.394   7.568   7.590
26914SOL    HW182749   3.489   7.562   7.585
26914SOL    HW282750   3.367   7.489   7.637
26915SOL     OW82751   8.792   5.718   2.532
26915SOL    HW182752   8.859   5.700   2.598
26915SOL    HW282753   8.729   5.775   2.575
26916SOL     OW82754   0.387   2.781   6.731
26916SOL    HW182755   0.415   2.700   6.687
26916SOL    HW282756   0.334   2.751   6.805
26917SOL     OW82757   8.862   2.677   9.206
26917SOL    HW182758   8.908   2.687   9.289
26917SOL    HW282759   8.842   2.766   9.178
26918SOL     OW82760   9.209   5.180   5.869
26918SOL    HW182761   9.262   5.257   5.889
26918SOL    HW282762   9.174   5.151   5.953
26919SOL     OW82763   2.343   6.487   4.049
26919SOL    HW182764   2.270   6.440   4.090
26919SOL    HW282765   2.401   6.417   4.018
26920SOL     OW82766   1.350   6.497   5.618
26920SOL    HW182767   1.299   6.543   5.552
26920SOL    HW282768   1.291   6.489   5.693
26921SOL     OW82769   8.377   4.472   3.301
26921SOL    HW182770   8.369   4.552   3.250
26921SOL    HW282771   8.440   4.493   3.370
26922SOL     OW82772   7.359   4.697   2.256
26922SOL    HW182773   7.286   4.647   2.291
26922SOL    HW282774   7.384   4.756   2.326
26923SOL     OW82775   6.024   5.329   2.360
26923SOL    HW182776   5.992   5.397   2.301
26923SOL    HW282777   6.070   5.267   2.303
26924SOL     OW82778   2.329   5.727   2.560
26924SOL    HW182779   2.383   5.806   2.556
26924SOL    HW282780   2.263   5.747   2.626
26925SOL     OW82781   3.764   1.040   1.764
26925SOL    HW182782   3.852   1.003   1.764
26925SOL    HW282783   3.723   1.004   1.685
26926SOL     OW82784   6.944   7.856   1.473
26926SOL    HW182785   6.923   7.936   1.520
26926SOL    HW282786   6.921   7.874   1.382
26927SOL     OW82787   9.338   4.521   5.163
26927SOL    HW182788   9.371   4.609   5.180
26927SOL    HW282789   9.294   4.495   5.244
26928SOL     OW82790   8.958   3.603   1.433
26928SOL    HW182791   8.967   3.598   1.338
26928SOL    HW282792   8.911   3.685   1.448
26929SOL     OW82793   7.456   1.345   8.709
26929SOL    HW182794   7.447   1.349   8.804
26929SOL    HW282795   7.458   1.436   8.681
26930SOL     OW82796   3.151  10.351   1.731
26930SOL    HW182797   3.064  10.347   1.690
26930SOL    HW282798   3.147  10.424   1.792
26931SOL     OW82799   6.418   4.774   2.388
26931SOL    HW182800   6.443   4.835   2.457
26931SOL    HW282801   6.374   4.828   2.322
26932SOL     OW82802   6.693   8.505   4.591
26932SOL    HW182803   6.772   8.506   4.645
26932SOL    HW282804   6.646   8.426   4.618
26933SOL     OW82805   7.001   5.395   6.532
26933SOL    HW182806   7.093   5.397   6.559
26933SOL    HW282807   6.996   5.323   6.469
26934SOL     OW82808  10.329   8.794   8.961
26934SOL    HW182809  10.308   8.866   8.902
26934SOL    HW282810  10.274   8.721   8.930
26935SOL     OW82811   9.672   4.872   2.766
26935SOL    HW182812   9.604   4.844   2.826
26935SOL    HW282813   9.690   4.963   2.789
26936SOL     OW82814   4.897   7.511   9.071
26936SOL    HW182815   4.942   7.438   9.028
26936SOL    HW282816   4.817   7.523   9.020
26937SOL     OW82817   6.574   8.130   3.768
26937SOL    HW182818   6.570   8.192   3.840
26937SOL    HW282819   6.576   8.044   3.810
26938SOL     OW82820   7.917   7.397   1.453
26938SOL    HW182821   7.971   7.319   1.467
26938SOL    HW282822   7.947   7.459   1.519
26939SOL     OW82823   4.507   5.659   2.188
26939SOL    HW182824   4.600   5.676   2.172
26939SOL    HW282825   4.491   5.692   2.276
26940SOL     OW82826   8.349   4.800  10.806
26940SOL    HW182827   8.286   4.743  10.760
26940SOL    HW282828   8.342   4.774  10.898
26941SOL     OW82829  10.689   6.182   1.592
26941SOL    HW182830  10.673   6.092   1.621
26941SOL    HW282831  10.757   6.214   1.651
26942SOL     OW82832   6.819   7.881   4.849
26942SOL    HW182833   6.912   7.869   4.866
26942SOL    HW282834   6.787   7.932   4.923
26943SOL     OW82835   8.215   6.102   0.293
26943SOL    HW182836   8.213   6.014   0.255
26943SOL    HW282837   8.188   6.089   0.384
26944SOL     OW82838   3.571   6.628   4.189
26944SOL    HW182839   3.632   6.617   4.262
26944SOL    HW282840   3.554   6.539   4.158
26945SOL     OW82841   6.826   9.988   4.101
26945SOL    HW182842   6.843  10.071   4.057
26945SOL    HW282843   6.908   9.939   4.094
26946SOL     OW82844   1.413   5.806   8.025
26946SOL    HW182845   1.401   5.786   8.118
26946SOL    HW282846   1.405   5.901   8.020
26947SOL     OW82847   9.893   9.932   9.489
26947SOL    HW182848   9.988   9.938   9.481
26947SOL    HW282849   9.876   9.839   9.503
26948SOL     OW82850   8.780   7.107   6.241
26948SOL    HW182851   8.835   7.123   6.164
26948SOL    HW282852   8.737   7.191   6.258
26949SOL     OW82853   0.713   7.120   3.564
26949SOL    HW182854   0.794   7.076   3.591
26949SOL    HW282855   0.643   7.064   3.598
26950SOL     OW82856   0.459  10.124   5.953
26950SOL    HW182857   0.489  10.133   5.862
26950SOL    HW282858   0.537  10.142   6.006
26951SOL     OW82859   3.144   6.793   3.630
26951SOL    HW182860   3.076   6.725   3.633
26951SOL    HW282861   3.116   6.857   3.694
26952SOL     OW82862   7.039   8.492   4.546
26952SOL    HW182863   7.104   8.426   4.572
26952SOL    HW282864   6.962   8.441   4.520
26953SOL     OW82865   6.128   8.377  10.960
26953SOL    HW182866   6.087   8.460  10.935
26953SOL    HW282867   6.213   8.378  10.915
26954SOL     OW82868   6.463   1.282   4.975
26954SOL    HW182869   6.396   1.328   5.025
26954SOL    HW282870   6.427   1.277   4.886
26955SOL     OW82871   0.715   3.956   7.019
26955SOL    HW182872   0.698   3.861   7.019
26955SOL    HW282873   0.783   3.968   6.953
26956SOL     OW82874   7.114   5.049   3.502
26956SOL    HW182875   7.071   4.972   3.540
26956SOL    HW282876   7.147   5.097   3.577
26957SOL     OW82877   2.608  10.862   3.453
26957SOL    HW182878   2.678  10.816   3.500
26957SOL    HW282879   2.608  10.950   3.490
26958SOL     OW82880   8.784   7.559   8.595
26958SOL    HW182881   8.781   7.654   8.594
26958SOL    HW282882   8.811   7.535   8.506
26959SOL     OW82883   6.162   7.280   4.350
26959SOL    HW182884   6.131   7.252   4.264
26959SOL    HW282885   6.257   7.270   4.345
26960SOL     OW82886   9.937   5.037   1.258
26960SOL    HW182887   9.854   5.083   1.245
26960SOL    HW282888   9.940   4.973   1.186
26961SOL     OW82889   0.778   7.808   1.720
26961SOL    HW182890   0.779   7.755   1.640
26961SOL    HW282891   0.808   7.748   1.788
26962SOL     OW82892   8.711   1.308   4.487
26962SOL    HW182893   8.671   1.224   4.510
26962SOL    HW282894   8.785   1.317   4.547
26963SOL     OW82895   4.492   6.334   1.654
26963SOL    HW182896   4.520   6.271   1.587
26963SOL    HW282897   4.540   6.414   1.634
26964SOL     OW82898  10.958   3.284   1.032
26964SOL    HW182899  10.978   3.198   1.069
26964SOL    HW282900  11.026   3.341   1.066
26965SOL     OW82901   9.682   2.402   6.992
26965SOL    HW182902   9.710   2.386   7.082
26965SOL    HW282903   9.715   2.327   6.943
26966SOL     OW82904   9.976   6.976   4.689
26966SOL    HW182905  10.051   7.035   4.696
26966SOL    HW282906   9.899   7.033   4.693
26967SOL     OW82907   8.525   6.637   3.993
26967SOL    HW182908   8.606   6.677   3.960
26967SOL    HW282909   8.462   6.647   3.921
26968SOL     OW82910   3.199   4.503   2.766
26968SOL    HW182911   3.157   4.486   2.850
26968SOL    HW282912   3.291   4.482   2.780
26969SOL     OW82913   8.769  10.081   8.914
26969SOL    HW182914   8.855  10.122   8.909
26969SOL    HW282915   8.743  10.091   9.005
26970SOL     OW82916   2.089   8.424  10.530
26970SOL    HW182917   2.036   8.379  10.595
26970SOL    HW282918   2.046   8.405  10.447
26971SOL     OW82919   9.431   1.532   1.169
26971SOL    HW182920   9.495   1.551   1.237
26971SOL    HW282921   9.403   1.442   1.186
26972SOL     OW82922  10.773   2.833   0.331
26972SOL    HW182923  10.722   2.830   0.250
26972SOL    HW282924  10.708   2.822   0.400
26973SOL     OW82925   3.341   5.525   8.932
26973SOL    HW182926   3.298   5.440   8.921
26973SOL    HW282927   3.398   5.513   9.008
26974SOL     OW82928   7.688   5.959  10.119
26974SOL    HW182929   7.594   5.973  10.127
26974SOL    HW282930   7.723   5.978  10.206
26975SOL     OW82931   4.594   6.057   1.859
26975SOL    HW182932   4.590   6.043   1.953
26975SOL    HW282933   4.521   6.116   1.840
26976SOL     OW82934   8.624   8.102   0.544
26976SOL    HW182935   8.555   8.041   0.571
26976SOL    HW282936   8.593   8.188   0.571
26977SOL     OW82937   9.010   4.081   0.719
26977SOL    HW182938   9.080   4.146   0.712
26977SOL    HW282939   9.030   4.018   0.649
26978SOL     OW82940   6.515   9.344   2.848
26978SOL    HW182941   6.475   9.262   2.818
26978SOL    HW282942   6.554   9.382   2.769
26979SOL     OW82943  10.512   7.940   1.341
26979SOL    HW182944  10.550   7.890   1.413
26979SOL    HW282945  10.469   8.014   1.383
26980SOL     OW82946  10.714  10.799   1.698
26980SOL    HW182947  10.720  10.794   1.793
26980SOL    HW282948  10.693  10.710   1.671
26981SOL     OW82949   5.398   4.046   6.051
26981SOL    HW182950   5.439   3.966   6.084
26981SOL    HW282951   5.314   4.051   6.097
26982SOL     OW82952   9.919   7.346   8.448
26982SOL    HW182953   9.952   7.329   8.536
26982SOL    HW282954   9.983   7.406   8.410
26983SOL     OW82955   1.598   8.030   2.325
26983SOL    HW182956   1.622   8.003   2.236
26983SOL    HW282957   1.594   7.948   2.374
26984SOL     OW82958   3.238   5.214  10.044
26984SOL    HW182959   3.192   5.279   9.991
26984SOL    HW282960   3.313   5.188   9.990
26985SOL     OW82961   4.804  10.582   7.113
26985SOL    HW182962   4.784  10.617   7.200
26985SOL    HW282963   4.887  10.624   7.088
26986SOL     OW82964   1.143   0.860   1.749
26986SOL    HW182965   1.200   0.819   1.684
26986SOL    HW282966   1.202   0.911   1.804
26987SOL     OW82967   6.390   5.592   5.737
26987SOL    HW182968   6.446   5.596   5.659
26987SOL    HW282969   6.304   5.618   5.705
26988SOL     OW82970   9.649   8.351   6.043
26988SOL    HW182971   9.683   8.422   6.096
26988SOL    HW282972   9.554   8.361   6.047
26989SOL     OW82973   8.159   5.562   6.037
26989SOL    HW182974   8.158   5.493   6.103
26989SOL    HW282975   8.089   5.622   6.063
26990SOL     OW82976   3.049   8.341   7.099
26990SOL    HW182977   3.114   8.385   7.153
26990SOL    HW282978   3.084   8.252   7.088
26991SOL     OW82979   9.651   0.658   8.279
26991SOL    HW182980   9.590   0.731   8.283
26991SOL    HW282981   9.600   0.586   8.241
26992SOL     OW82982   5.528   9.307   0.642
26992SOL    HW182983   5.534   9.339   0.732
26992SOL    HW282984   5.435   9.288   0.629
26993SOL     OW82985   8.403   5.040   1.042
26993SOL    HW182986   8.348   5.064   0.968
26993SOL    HW282987   8.402   4.944   1.041
26994SOL     OW82988   1.428   5.890   1.329
26994SOL    HW182989   1.368   5.903   1.402
26994SOL    HW282990   1.513   5.876   1.370
26995SOL     OW82991   9.886   5.440   2.398
26995SOL    HW182992   9.890   5.473   2.487
26995SOL    HW282993   9.847   5.353   2.406
26996SOL     OW82994   0.844   4.126   1.302
26996SOL    HW182995   0.762   4.131   1.351
26996SOL    HW282996   0.879   4.215   1.305
26997SOL     OW82997   7.495   6.766   2.810
26997SOL    HW182998   7.491   6.861   2.802
26997SOL    HW282999   7.423   6.734   2.755
26998SOL     OW83000   2.691   8.823   2.192
26998SOL    HW183001   2.769   8.790   2.237
26998SOL    HW283002   2.629   8.750   2.196
26999SOL     OW83003   6.577   9.055   7.427
26999SOL    HW183004   6.586   9.111   7.350
26999SOL    HW283005   6.611   8.970   7.399
27000SOL     OW83006  10.973   0.567   7.877
27000SOL    HW183007  10.971   0.506   7.802
27000SOL    HW283008  10.944   0.514   7.951
27001SOL     OW83009  10.443   9.054   0.920
27001SOL    HW183010  10.515   8.991   0.928
27001SOL    HW283011  10.481   9.138   0.944
27002SOL     OW83012   5.077   5.352   2.121
27002SOL    HW183013   5.024   5.304   2.184
27002SOL    HW283014   5.120   5.283   2.069
27003SOL     OW83015   8.827   0.786   7.495
27003SOL    HW183016   8.789   0.766   7.409
27003SOL    HW283017   8.843   0.880   7.493
27004SOL     OW83018   9.667   1.153  10.406
27004SOL    HW183019   9.741   1.098  10.381
27004SOL    HW283020   9.593   1.092  10.411
27005SOL     OW83021   5.784   6.721   5.367
27005SOL    HW183022   5.725   6.645   5.369
27005SOL    HW283023   5.869   6.686   5.394
27006SOL     OW83024   3.753   3.251  10.897
27006SOL    HW183025   3.777   3.200  10.974
27006SOL    HW283026   3.833   3.254  10.844
27007SOL     OW83027  10.168  10.676   2.864
27007SOL    HW183028  10.116  10.744   2.822
27007SOL    HW283029  10.202  10.624   2.791
27008SOL     OW83030   6.441   4.607   8.025
27008SOL    HW183031   6.396   4.549   7.963
27008SOL    HW283032   6.371   4.658   8.065
27009SOL     OW83033   4.470   8.406   5.726
27009SOL    HW183034   4.461   8.378   5.817
27009SOL    HW283035   4.529   8.341   5.687
27010SOL     OW83036   1.415   3.429   2.960
27010SOL    HW183037   1.500   3.458   2.994
27010SOL    HW283038   1.414   3.334   2.976
27011SOL     OW83039   4.351   7.677   0.493
27011SOL    HW183040   4.263   7.639   0.497
27011SOL    HW283041   4.373   7.676   0.400
27012SOL     OW83042   6.581   8.616   4.173
27012SOL    HW183043   6.505   8.666   4.144
27012SOL    HW283044   6.584   8.630   4.267
27013SOL     OW83045   7.180   5.760   4.042
27013SOL    HW183046   7.137   5.679   4.013
27013SOL    HW283047   7.274   5.741   4.034
27014SOL     OW83048  10.045   3.068   0.595
27014SOL    HW183049  10.030   3.024   0.511
27014SOL    HW283050   9.979   3.031   0.653
27015SOL     OW83051   6.791   8.681  10.528
27015SOL    HW183052   6.738   8.614  10.485
27015SOL    HW283053   6.879   8.668  10.493
27016SOL     OW83054   8.896   7.444  10.997
27016SOL    HW183055   8.971   7.463  11.052
27016SOL    HW283056   8.923   7.471  10.909
27017SOL     OW83057   5.251   1.718  10.882
27017SOL    HW183058   5.183   1.770  10.840
27017SOL    HW283059   5.297   1.675  10.809
27018SOL     OW83060   1.860   7.352   1.319
27018SOL    HW183061   1.891   7.418   1.257
27018SOL    HW283062   1.807   7.400   1.382
27019SOL     OW83063   7.566   4.257   7.571
27019SOL    HW183064   7.474   4.282   7.562
27019SOL    HW283065   7.611   4.338   7.594
27020SOL     OW83066   8.292   0.331   9.368
27020SOL    HW183067   8.293   0.236   9.381
27020SOL    HW283068   8.379   0.351   9.334
27021SOL     OW83069   6.284   8.528   4.901
27021SOL    HW183070   6.228   8.452   4.917
27021SOL    HW283071   6.373   8.496   4.917
27022SOL     OW83072   0.997   1.974   6.285
27022SOL    HW183073   0.939   1.926   6.225
27022SOL    HW283074   0.940   2.038   6.327
27023SOL     OW83075   6.530   4.864  11.036
27023SOL    HW183076   6.618   4.830  11.016
27023SOL    HW283077   6.545   4.949  11.076
27024SOL     OW83078   9.336   3.241   2.649
27024SOL    HW183079   9.381   3.325   2.640
27024SOL    HW283080   9.353   3.196   2.566
27025SOL     OW83081   6.776   6.470   7.617
27025SOL    HW183082   6.794   6.532   7.547
27025SOL    HW283083   6.692   6.430   7.593
27026SOL     OW83084   5.879   9.408   3.033
27026SOL    HW183085   5.828   9.431   2.955
27026SOL    HW283086   5.969   9.430   3.010
27027SOL     OW83087   4.702   9.290   3.437
27027SOL    HW183088   4.656   9.359   3.390
27027SOL    HW283089   4.646   9.271   3.512
27028SOL     OW83090   5.740   7.883   7.883
27028SOL    HW183091   5.693   7.956   7.843
27028SOL    HW283092   5.832   7.908   7.877
27029SOL     OW83093   7.743   8.242  10.154
27029SOL    HW183094   7.707   8.276  10.236
27029SOL    HW283095   7.835   8.269  10.155
27030SOL     OW83096   8.116   1.501   4.489
27030SOL    HW183097   8.161   1.475   4.408
27030SOL    HW283098   8.187   1.524   4.549
27031SOL     OW83099   8.282   8.176   6.327
27031SOL    HW183100   8.300   8.089   6.291
27031SOL    HW283101   8.229   8.219   6.260
27032SOL     OW83102   9.920   4.690  10.621
27032SOL    HW183103   9.945   4.760  10.560
27032SOL    HW283104   9.975   4.615  10.596
27033SOL     OW83105  10.193  10.517   6.396
27033SOL    HW183106  10.192  10.528   6.300
27033SOL    HW283107  10.152  10.597   6.429
27034SOL     OW83108   6.931   2.941   7.419
27034SOL    HW183109   6.984   3.017   7.396
27034SOL    HW283110   6.952   2.876   7.352
27035SOL     OW83111   9.114   6.343   2.041
27035SOL    HW183112   9.037   6.385   2.004
27035SOL    HW283113   9.161   6.309   1.964
27036SOL     OW83114   1.839   7.969  10.260
27036SOL    HW183115   1.804   7.895  10.210
27036SOL    HW283116   1.779   7.979  10.333
27037SOL     OW83117   2.863   4.478   0.877
27037SOL    HW183118   2.796   4.542   0.852
27037SOL    HW283119   2.855   4.470   0.972
27038SOL     OW83120   3.357   6.781   6.753
27038SOL    HW183121   3.311   6.774   6.836
27038SOL    HW283122   3.389   6.692   6.736
27039SOL     OW83123   1.499   6.810   7.437
27039SOL    HW183124   1.558   6.856   7.377
27039SOL    HW283125   1.554   6.789   7.513
27040SOL     OW83126   4.366   0.938   9.143
27040SOL    HW183127   4.461   0.951   9.138
27040SOL    HW283128   4.340   0.983   9.223
27041SOL     OW83129   4.452   5.279   0.697
27041SOL    HW183130   4.396   5.247   0.626
27041SOL    HW283131   4.471   5.201   0.749
27042SOL     OW83132   5.005   0.899  10.479
27042SOL    HW183133   5.083   0.881  10.426
27042SOL    HW283134   4.935   0.851  10.434
27043SOL     OW83135   7.746   3.762   8.094
27043SOL    HW183136   7.682   3.692   8.110
27043SOL    HW283137   7.831   3.718   8.099
27044SOL     OW83138   1.647   6.151   7.159
27044SOL    HW183139   1.697   6.087   7.107
27044SOL    HW283140   1.599   6.098   7.222
27045SOL     OW83141   6.706  10.344   8.554
27045SOL    HW183142   6.799  10.331   8.536
27045SOL    HW283143   6.665  10.339   8.467
27046SOL     OW83144   6.149   4.406   4.571
27046SOL    HW183145   6.104   4.370   4.494
27046SOL    HW283146   6.100   4.372   4.645
27047SOL     OW83147   0.327  10.703   0.451
27047SOL    HW183148   0.271  10.711   0.528
27047SOL    HW283149   0.266  10.681   0.380
27048SOL     OW83150  10.112   2.783   2.714
27048SOL    HW183151  10.114   2.695   2.753
27048SOL    HW283152  10.179   2.832   2.762
27049SOL     OW83153   2.180   7.934   7.732
27049SOL    HW183154   2.210   7.854   7.776
27049SOL    HW283155   2.249   7.953   7.668
27050SOL     OW83156   6.801   8.734   6.572
27050SOL    HW183157   6.767   8.709   6.486
27050SOL    HW283158   6.830   8.651   6.610
27051SOL     OW83159   3.457   6.447   1.174
27051SOL    HW183160   3.382   6.415   1.124
27051SOL    HW283161   3.533   6.415   1.126
27052SOL     OW83162   6.111   1.079   3.659
27052SOL    HW183163   6.080   1.009   3.600
27052SOL    HW283164   6.119   1.156   3.602
27053SOL     OW83165   3.948   5.478   6.179
27053SOL    HW183166   3.951   5.459   6.272
27053SOL    HW283167   3.979   5.568   6.172
27054SOL     OW83168   3.343   6.311   9.962
27054SOL    HW183169   3.364   6.403   9.978
27054SOL    HW283170   3.313   6.277  10.046
27055SOL     OW83171   4.180  11.096   3.787
27055SOL    HW183172   4.126  11.159   3.835
27055SOL    HW283173   4.268  11.108   3.823
27056SOL     OW83174   7.005   4.987   5.499
27056SOL    HW183175   7.004   4.893   5.516
27056SOL    HW283176   6.945   5.024   5.564
27057SOL     OW83177   8.349  10.161   3.066
27057SOL    HW183178   8.344  10.071   3.033
27057SOL    HW283179   8.266  10.174   3.112
27058SOL     OW83180   5.908  10.011   5.745
27058SOL    HW183181   5.982  10.022   5.685
27058SOL    HW283182   5.927   9.929   5.791
27059SOL     OW83183   5.635   8.467   8.945
27059SOL    HW183184   5.728   8.455   8.966
27059SOL    HW283185   5.589   8.450   9.027
27060SOL     OW83186   6.189   3.057  10.597
27060SOL    HW183187   6.174   3.000  10.521
27060SOL    HW283188   6.215   2.997  10.666
27061SOL     OW83189  10.374   1.522   6.117
27061SOL    HW183190  10.451   1.578   6.107
27061SOL    HW283191  10.300   1.582   6.115
27062SOL     OW83192   4.414   5.087   7.786
27062SOL    HW183193   4.448   5.091   7.696
27062SOL    HW283194   4.443   5.002   7.819
27063SOL     OW83195   4.357   4.555   7.349
27063SOL    HW183196   4.356   4.638   7.396
27063SOL    HW283197   4.272   4.515   7.368
27064SOL     OW83198   6.640   7.286   3.498
27064SOL    HW183199   6.612   7.194   3.504
27064SOL    HW283200   6.679   7.292   3.411
27065SOL     OW83201   6.100   2.563   3.377
27065SOL    HW183202   6.131   2.643   3.334
27065SOL    HW283203   6.063   2.592   3.460
27066SOL     OW83204   2.474   4.360   0.437
27066SOL    HW183205   2.385   4.369   0.403
27066SOL    HW283206   2.527   4.415   0.379
27067SOL     OW83207   6.322   2.236   4.566
27067SOL    HW183208   6.234   2.200   4.572
27067SOL    HW283209   6.349   2.249   4.656
27068SOL     OW83210   4.528   2.037   8.078
27068SOL    HW183211   4.455   2.095   8.099
27068SOL    HW283212   4.606   2.090   8.092
27069SOL     OW83213   5.595   6.703   0.148
27069SOL    HW183214   5.533   6.685   0.219
27069SOL    HW283215   5.659   6.763   0.187
27070SOL     OW83216   4.757   3.491   6.109
27070SOL    HW183217   4.790   3.555   6.046
27070SOL    HW283218   4.695   3.438   6.059
27071SOL     OW83219   6.752   6.898   5.088
27071SOL    HW183220   6.823   6.888   5.024
27071SOL    HW283221   6.766   6.827   5.150
27072SOL     OW83222   7.928   5.232   0.359
27072SOL    HW183223   7.922   5.326   0.342
27072SOL    HW283224   8.013   5.221   0.402
27073SOL     OW83225   7.553   3.093   1.763
27073SOL    HW183226   7.622   3.059   1.819
27073SOL    HW283227   7.515   3.165   1.812
27074SOL     OW83228   7.377   8.596   4.660
27074SOL    HW183229   7.308   8.599   4.594
27074SOL    HW283230   7.435   8.668   4.636
27075SOL     OW83231   6.242  10.697   9.813
27075SOL    HW183232   6.172  10.690   9.878
27075SOL    HW283233   6.227  10.624   9.753
27076SOL     OW83234   0.039   7.044   7.534
27076SOL    HW183235  -0.018   7.007   7.601
27076SOL    HW283236   0.027   7.138   7.542
27077SOL     OW83237   6.393   7.691   4.244
27077SOL    HW183238   6.338   7.728   4.313
27077SOL    HW283239   6.415   7.603   4.275
27078SOL     OW83240   2.717   6.706   0.123
27078SOL    HW183241   2.638   6.666   0.086
27078SOL    HW283242   2.787   6.681   0.063
27079SOL     OW83243   2.992   3.347  10.325
27079SOL    HW183244   3.059   3.309  10.268
27079SOL    HW283245   2.909   3.316  10.289
27080SOL     OW83246   8.550   4.093   1.346
27080SOL    HW183247   8.460   4.101   1.376
27080SOL    HW283248   8.602   4.099   1.426
27081SOL     OW83249  10.840   6.375   9.841
27081SOL    HW183250  10.856   6.420   9.758
27081SOL    HW283251  10.810   6.288   9.815
27082SOL     OW83252   9.786   6.692   3.474
27082SOL    HW183253   9.880   6.702   3.456
27082SOL    HW283254   9.775   6.725   3.563
27083SOL     OW83255   3.264   7.093   8.723
27083SOL    HW183256   3.227   7.028   8.663
27083SOL    HW283257   3.346   7.120   8.682
27084SOL     OW83258   9.725   3.236   3.804
27084SOL    HW183259   9.770   3.263   3.724
27084SOL    HW283260   9.787   3.179   3.849
27085SOL     OW83261   5.917   4.356  10.311
27085SOL    HW183262   5.876   4.294  10.371
27085SOL    HW283263   5.861   4.433  10.314
27086SOL     OW83264   8.666   5.669   9.983
27086SOL    HW183265   8.632   5.758   9.978
27086SOL    HW283266   8.733   5.672  10.051
27087SOL     OW83267   2.234   7.610   1.480
27087SOL    HW183268   2.180   7.593   1.557
27087SOL    HW283269   2.324   7.606   1.512
27088SOL     OW83270  10.466   5.549   1.708
27088SOL    HW183271  10.430   5.470   1.666
27088SOL    HW283272  10.505   5.598   1.636
27089SOL     OW83273   3.743   6.972   5.438
27089SOL    HW183274   3.670   6.911   5.424
27089SOL    HW283275   3.719   7.021   5.516
27090SOL     OW83276   2.038   4.189   3.381
27090SOL    HW183277   1.958   4.227   3.417
27090SOL    HW283278   2.065   4.250   3.312
27091SOL     OW83279   1.124   5.285   7.339
27091SOL    HW183280   1.138   5.307   7.247
27091SOL    HW283281   1.206   5.244   7.366
27092SOL     OW83282   5.277   4.164  10.794
27092SOL    HW183283   5.279   4.178  10.699
27092SOL    HW283284   5.369   4.160  10.819
27093SOL     OW83285   0.214   8.184   0.934
27093SOL    HW183286   0.167   8.106   0.963
27093SOL    HW283287   0.246   8.224   1.015
27094SOL     OW83288   5.762   9.138   9.703
27094SOL    HW183289   5.716   9.094   9.631
27094SOL    HW283290   5.801   9.067   9.754
27095SOL     OW83291   5.657   3.728   8.701
27095SOL    HW183292   5.648   3.671   8.777
27095SOL    HW283293   5.745   3.764   8.708
27096SOL     OW83294   7.812   0.196   1.978
27096SOL    HW183295   7.835   0.287   1.994
27096SOL    HW283296   7.721   0.199   1.949
27097SOL     OW83297   8.896   2.054   8.312
27097SOL    HW183298   8.986   2.034   8.338
27097SOL    HW283299   8.877   2.138   8.354
27098SOL     OW83300   6.102   2.473   2.889
27098SOL    HW183301   6.196   2.484   2.872
27098SOL    HW283302   6.083   2.383   2.861
27099SOL     OW83303   2.907   4.121   3.452
27099SOL    HW183304   2.901   4.107   3.546
27099SOL    HW283305   3.000   4.110   3.432
27100SOL     OW83306   9.612   6.418   5.936
27100SOL    HW183307   9.662   6.352   5.887
27100SOL    HW283308   9.571   6.471   5.868
27101SOL     OW83309   6.915   7.673   3.821
27101SOL    HW183310   7.005   7.641   3.832
27101SOL    HW283311   6.886   7.695   3.909
27102SOL     OW83312   4.047   8.313   5.734
27102SOL    HW183313   4.084   8.400   5.719
27102SOL    HW283314   4.011   8.316   5.822
27103SOL     OW83315  10.971   9.632   3.646
27103SOL    HW183316  10.957   9.660   3.736
27103SOL    HW283317  10.903   9.566   3.630
27104SOL     OW83318  10.983   6.743  10.194
27104SOL    HW183319  10.935   6.660  10.197
27104SOL    HW283320  11.026   6.742  10.108
27105SOL     OW83321   7.409  10.243   9.115
27105SOL    HW183322   7.354  10.164   9.107
27105SOL    HW283323   7.463  10.242   9.036
27106SOL     OW83324   3.367   3.647   6.486
27106SOL    HW183325   3.274   3.636   6.467
27106SOL    HW283326   3.370   3.691   6.571
27107SOL     OW83327  10.698   8.033   7.504
27107SOL    HW183328  10.731   8.038   7.414
27107SOL    HW283329  10.728   7.948   7.536
27108SOL     OW83330   7.110   7.988   7.143
27108SOL    HW183331   7.139   8.071   7.105
27108SOL    HW283332   7.017   7.982   7.120
27109SOL     OW83333   1.015   6.422   9.704
27109SOL    HW183334   0.980   6.346   9.751
27109SOL    HW283335   0.938   6.461   9.662
27110SOL     OW83336   5.005   1.440   0.217
27110SOL    HW183337   5.037   1.399   0.136
27110SOL    HW283338   4.926   1.487   0.190
27111SOL     OW83339   1.469   7.490  10.163
27111SOL    HW183340   1.437   7.453  10.080
27111SOL    HW283341   1.418   7.445  10.230
27112SOL     OW83342   3.524   6.540   3.804
27112SOL    HW183343   3.455   6.528   3.869
27112SOL    HW283344   3.603   6.505   3.846
27113SOL     OW83345   8.791   6.241   3.451
27113SOL    HW183346   8.759   6.242   3.541
27113SOL    HW283347   8.769   6.327   3.416
27114SOL     OW83348   6.133   6.721   8.881
27114SOL    HW183349   6.125   6.664   8.957
27114SOL    HW283350   6.109   6.665   8.807
27115SOL     OW83351   3.917   8.947   9.664
27115SOL    HW183352   3.939   8.878   9.601
27115SOL    HW283353   3.984   8.940   9.732
27116SOL     OW83354   3.739   8.725   3.620
27116SOL    HW183355   3.827   8.738   3.585
27116SOL    HW283356   3.753   8.700   3.711
27117SOL     OW83357   9.328  10.959  11.087
27117SOL    HW183358   9.418  10.930  11.104
27117SOL    HW283359   9.335  11.054  11.076
27118SOL     OW83360   2.367   0.736   3.059
27118SOL    HW183361   2.372   0.646   3.090
27118SOL    HW283362   2.359   0.789   3.138
27119SOL     OW83363   2.682   6.843   5.112
27119SOL    HW183364   2.719   6.770   5.162
27119SOL    HW283365   2.705   6.921   5.161
27120SOL     OW83366   2.511   9.975   8.045
27120SOL    HW183367   2.478  10.046   7.990
27120SOL    HW283368   2.436   9.948   8.098
27121SOL     OW83369   5.359   7.009   9.764
27121SOL    HW183370   5.441   7.013   9.813
27121SOL    HW283371   5.384   7.032   9.674
27122SOL     OW83372   5.314   6.011   3.645
27122SOL    HW183373   5.266   6.061   3.710
27122SOL    HW283374   5.355   5.940   3.694
27123SOL     OW83375   7.622   5.358   9.711
27123SOL    HW183376   7.627   5.434   9.768
27123SOL    HW283377   7.620   5.283   9.770
27124SOL     OW83378   1.418   6.472   9.048
27124SOL    HW183379   1.359   6.434   9.113
27124SOL    HW283380   1.493   6.412   9.046
27125SOL     OW83381  10.546   8.953   1.345
27125SOL    HW183382  10.602   9.025   1.373
27125SOL    HW283383  10.471   8.995   1.302
27126SOL     OW83384   8.139   6.777   3.387
27126SOL    HW183385   8.143   6.727   3.468
27126SOL    HW283386   8.053   6.818   3.388
27127SOL     OW83387   4.234   9.042   4.352
27127SOL    HW183388   4.156   9.094   4.368
27127SOL    HW283389   4.214   8.993   4.271
27128SOL     OW83390   0.329   4.302   0.189
27128SOL    HW183391   0.308   4.233   0.253
27128SOL    HW283392   0.272   4.283   0.115
27129SOL     OW83393   7.050   9.683   8.628
27129SOL    HW183394   7.144   9.700   8.634
27129SOL    HW283395   7.020   9.682   8.718
27130SOL     OW83396   5.380  10.117   1.548
27130SOL    HW183397   5.352  10.073   1.628
27130SOL    HW283398   5.474  10.132   1.560
27131SOL     OW83399   9.566   1.506   0.072
27131SOL    HW183400   9.474   1.490   0.053
27131SOL    HW283401   9.569   1.519   0.167
27132SOL     OW83402   9.688   1.868  10.266
27132SOL    HW183403   9.726   1.902  10.347
27132SOL    HW283404   9.656   1.781  10.289
27133SOL     OW83405   2.271   9.269   4.960
27133SOL    HW183406   2.275   9.348   4.907
27133SOL    HW283407   2.229   9.204   4.903
27134SOL     OW83408   1.289   9.009   0.905
27134SOL    HW183409   1.321   8.955   0.832
27134SOL    HW283410   1.249   8.946   0.965
27135SOL     OW83411   4.084   8.253   0.558
27135SOL    HW183412   4.022   8.281   0.625
27135SOL    HW283413   4.117   8.169   0.590
27136SOL     OW83414   5.519   9.746   8.695
27136SOL    HW183415   5.432   9.749   8.734
27136SOL    HW283416   5.508   9.782   8.607
27137SOL     OW83417   1.054   7.135   7.380
27137SOL    HW183418   1.000   7.188   7.438
27137SOL    HW283419   0.992   7.094   7.319
27138SOL     OW83420   7.658   7.739   3.171
27138SOL    HW183421   7.591   7.721   3.237
27138SOL    HW283422   7.655   7.663   3.112
27139SOL     OW83423   3.734   9.792   5.189
27139SOL    HW183424   3.660   9.780   5.129
27139SOL    HW283425   3.735   9.712   5.242
27140SOL     OW83426   4.630   2.009  10.824
27140SOL    HW183427   4.624   1.915  10.805
27140SOL    HW283428   4.623   2.015  10.919
27141SOL     OW83429   4.444  10.593   4.600
27141SOL    HW183430   4.365  10.646   4.612
27141SOL    HW283431   4.424  10.510   4.643
27142SOL     OW83432   5.386   8.022   9.823
27142SOL    HW183433   5.458   8.063   9.775
27142SOL    HW283434   5.318   8.089   9.826
27143SOL     OW83435   9.848   8.644   7.644
27143SOL    HW183436   9.875   8.565   7.596
27143SOL    HW283437   9.910   8.651   7.716
27144SOL     OW83438   3.438   3.229   5.687
27144SOL    HW183439   3.423   3.166   5.757
27144SOL    HW283440   3.416   3.314   5.725
27145SOL     OW83441   4.781   0.548   0.144
27145SOL    HW183442   4.821   0.499   0.217
27145SOL    HW283443   4.849   0.552   0.077
27146SOL     OW83444   5.298   8.329  10.177
27146SOL    HW183445   5.290   8.316  10.271
27146SOL    HW283446   5.210   8.315  10.143
27147SOL     OW83447   3.968   5.579   3.990
27147SOL    HW183448   3.931   5.623   3.913
27147SOL    HW283449   4.031   5.641   4.026
27148SOL     OW83450   8.731  11.049  10.596
27148SOL    HW183451   8.801  11.113  10.584
27148SOL    HW283452   8.654  11.089  10.556
27149SOL     OW83453   5.941   6.401   8.374
27149SOL    HW183454   5.931   6.323   8.318
27149SOL    HW283455   5.888   6.468   8.331
27150SOL     OW83456  10.105   4.411  10.097
27150SOL    HW183457  10.108   4.506  10.100
27150SOL    HW283458  10.034   4.391  10.036
27151SOL     OW83459   8.410   9.140   3.410
27151SOL    HW183460   8.332   9.188   3.435
27151SOL    HW283461   8.386   9.098   3.327
27152SOL     OW83462   9.255   5.176   3.225
27152SOL    HW183463   9.181   5.207   3.173
27152SOL    HW283464   9.330   5.224   3.190
27153SOL     OW83465   1.883   8.980   9.902
27153SOL    HW183466   1.789   8.965   9.912
27153SOL    HW283467   1.919   8.968   9.989
27154SOL     OW83468   8.728   5.675   8.825
27154SOL    HW183469   8.668   5.636   8.888
27154SOL    HW283470   8.794   5.719   8.878
27155SOL     OW83471   2.206   9.852   7.774
27155SOL    HW183472   2.220   9.766   7.813
27155SOL    HW283473   2.227   9.839   7.681
27156SOL     OW83474   3.204   9.254   6.973
27156SOL    HW183475   3.131   9.245   6.912
27156SOL    HW283476   3.279   9.274   6.917
27157SOL     OW83477   4.991   5.438   9.574
27157SOL    HW183478   5.060   5.442   9.640
27157SOL    HW283479   4.911   5.461   9.621
27158SOL     OW83480   8.394   8.745   9.732
27158SOL    HW183481   8.409   8.830   9.691
27158SOL    HW283482   8.388   8.684   9.658
27159SOL     OW83483   3.901   6.923   6.040
27159SOL    HW183484   3.915   6.976   5.961
27159SOL    HW283485   3.924   6.834   6.013
27160SOL     OW83486   7.100   9.711   6.368
27160SOL    HW183487   7.053   9.652   6.308
27160SOL    HW283488   7.090   9.798   6.329
27161SOL     OW83489   9.289   8.831   7.737
27161SOL    HW183490   9.377   8.868   7.747
27161SOL    HW283491   9.259   8.814   7.826
27162SOL     OW83492   7.378   9.248  10.459
27162SOL    HW183493   7.340   9.331  10.432
27162SOL    HW283494   7.465   9.270  10.493
27163SOL     OW83495   9.750   4.493   3.531
27163SOL    HW183496   9.681   4.499   3.597
27163SOL    HW283497   9.827   4.533   3.572
27164SOL     OW83498   4.775   3.726   3.474
27164SOL    HW183499   4.794   3.816   3.447
27164SOL    HW283500   4.752   3.681   3.392
27165SOL     OW83501   6.280   4.109   1.155
27165SOL    HW183502   6.307   4.022   1.124
27165SOL    HW283503   6.281   4.102   1.250
27166SOL     OW83504   9.440   9.573   0.777
27166SOL    HW183505   9.529   9.600   0.800
27166SOL    HW283506   9.432   9.484   0.811
27167SOL     OW83507   9.178   3.477   2.018
27167SOL    HW183508   9.100   3.437   2.055
27167SOL    HW283509   9.162   3.571   2.022
27168SOL     OW83510   0.229   6.414  10.792
27168SOL    HW183511   0.309   6.464  10.783
27168SOL    HW283512   0.212   6.380  10.704
27169SOL     OW83513   1.737   9.122   5.158
27169SOL    HW183514   1.714   9.204   5.200
27169SOL    HW283515   1.754   9.146   5.067
27170SOL     OW83516  10.468   7.849   5.681
27170SOL    HW183517  10.462   7.944   5.678
27170SOL    HW283518  10.385   7.821   5.720
27171SOL     OW83519   2.005   9.734   6.658
27171SOL    HW183520   2.090   9.692   6.646
27171SOL    HW283521   1.953   9.704   6.583
27172SOL     OW83522   8.112  10.559   8.726
27172SOL    HW183523   8.089  10.647   8.696
27172SOL    HW283524   8.197  10.570   8.769
27173SOL     OW83525   3.586   0.317  10.084
27173SOL    HW183526   3.585   0.394  10.027
27173SOL    HW283527   3.637   0.343  10.160
27174SOL     OW83528   8.463   8.398   2.040
27174SOL    HW183529   8.541   8.453   2.040
27174SOL    HW283530   8.394   8.454   2.004
27175SOL     OW83531   4.783   6.368   1.345
27175SOL    HW183532   4.774   6.293   1.285
27175SOL    HW283533   4.704   6.365   1.399
27176SOL     OW83534   0.143   7.203   1.680
27176SOL    HW183535   0.146   7.116   1.639
27176SOL    HW283536   0.049   7.223   1.686
27177SOL     OW83537  10.776   6.538   4.879
27177SOL    HW183538  10.832   6.557   4.954
27177SOL    HW283539  10.690   6.570   4.904
27178SOL     OW83540   6.786   7.403   5.479
27178SOL    HW183541   6.765   7.310   5.465
27178SOL    HW283542   6.703   7.449   5.466
27179SOL     OW83543   8.675  10.619   3.353
27179SOL    HW183544   8.748  10.592   3.297
27179SOL    HW283545   8.696  10.584   3.439
27180SOL     OW83546   5.200   9.769   6.071
27180SOL    HW183547   5.295   9.776   6.077
27180SOL    HW283548   5.172   9.852   6.033
27181SOL     OW83549  11.013   3.151  10.339
27181SOL    HW183550  11.021   3.059  10.365
27181SOL    HW283551  10.924   3.175  10.363
27182SOL     OW83552   8.150   7.350   8.693
27182SOL    HW183553   8.062   7.316   8.680
27182SOL    HW283554   8.200   7.275   8.726
27183SOL     OW83555   9.971   8.473   2.206
27183SOL    HW183556   9.916   8.465   2.284
27183SOL    HW283557   9.967   8.565   2.182
27184SOL     OW83558   5.179   7.973   3.501
27184SOL    HW183559   5.184   8.055   3.550
27184SOL    HW283560   5.269   7.940   3.501
27185SOL     OW83561   8.145   8.492   1.054
27185SOL    HW183562   8.136   8.586   1.065
27185SOL    HW283563   8.144   8.457   1.143
27186SOL     OW83564   7.741   5.981   2.808
27186SOL    HW183565   7.822   5.987   2.758
27186SOL    HW283566   7.741   5.892   2.843
27187SOL     OW83567   0.387   8.222   6.180
27187SOL    HW183568   0.319   8.272   6.134
27187SOL    HW283569   0.444   8.190   6.110
27188SOL     OW83570   0.106   5.176   7.601
27188SOL    HW183571   0.193   5.139   7.588
27188SOL    HW283572   0.115   5.235   7.675
27189SOL     OW83573   2.023   6.128   5.431
27189SOL    HW183574   2.055   6.076   5.357
27189SOL    HW283575   1.989   6.063   5.493
27190SOL     OW83576  10.633   5.886   8.843
27190SOL    HW183577  10.712   5.834   8.827
27190SOL    HW283578  10.606   5.916   8.756
27191SOL     OW83579   8.940   9.616   5.223
27191SOL    HW183580   8.860   9.579   5.186
27191SOL    HW283581   8.946   9.579   5.311
27192SOL     OW83582   4.337   2.762   1.906
27192SOL    HW183583   4.380   2.705   1.842
27192SOL    HW283584   4.251   2.779   1.868
27193SOL     OW83585   6.261   4.610   0.442
27193SOL    HW183586   6.228   4.693   0.476
27193SOL    HW283587   6.227   4.606   0.352
27194SOL     OW83588   8.675   3.295   3.194
27194SOL    HW183589   8.651   3.279   3.285
27194SOL    HW283590   8.741   3.364   3.198
27195SOL     OW83591   1.568   7.135   4.048
27195SOL    HW183592   1.589   7.112   4.138
27195SOL    HW283593   1.650   7.120   4.000
27196SOL     OW83594   6.318   8.242   1.625
27196SOL    HW183595   6.347   8.311   1.684
27196SOL    HW283596   6.247   8.198   1.672
27197SOL     OW83597   4.836   2.799   4.877
27197SOL    HW183598   4.817   2.732   4.811
27197SOL    HW283599   4.755   2.807   4.927
27198SOL     OW83600  10.392   3.707   3.342
27198SOL    HW183601  10.460   3.763   3.380
27198SOL    HW283602  10.310   3.752   3.361
27199SOL     OW83603   7.075   6.984   7.852
27199SOL    HW183604   6.992   7.015   7.888
27199SOL    HW283605   7.134   6.979   7.927
27200SOL     OW83606  10.954   8.017   6.729
27200SOL    HW183607  10.979   7.983   6.815
27200SOL    HW283608  11.037   8.025   6.681
27201SOL     OW83609   9.351  10.507   6.563
27201SOL    HW183610   9.349  10.585   6.619
27201SOL    HW283611   9.421  10.453   6.599
27202SOL     OW83612   6.652  10.426   5.602
27202SOL    HW183613   6.591  10.465   5.664
27202SOL    HW283614   6.609  10.436   5.517
27203SOL     OW83615   7.193   8.157   6.275
27203SOL    HW183616   7.181   8.224   6.342
27203SOL    HW283617   7.210   8.206   6.194
27204SOL     OW83618   7.721   7.063   5.878
27204SOL    HW183619   7.674   6.987   5.844
27204SOL    HW283620   7.698   7.066   5.971
27205SOL     OW83621   9.870   9.210   4.642
27205SOL    HW183622   9.863   9.232   4.549
27205SOL    HW283623   9.790   9.244   4.681
27206SOL     OW83624   1.566   1.030   8.624
27206SOL    HW183625   1.622   1.103   8.649
27206SOL    HW283626   1.490   1.038   8.681
27207SOL     OW83627   2.349   8.134   4.605
27207SOL    HW183628   2.292   8.059   4.586
27207SOL    HW283629   2.438   8.098   4.598
27208SOL     OW83630   5.370   5.183   3.377
27208SOL    HW183631   5.380   5.093   3.345
27208SOL    HW283632   5.387   5.238   3.300
27209SOL     OW83633   3.748  10.053   1.775
27209SOL    HW183634   3.676   9.999   1.808
27209SOL    HW283635   3.772  10.012   1.692
27210SOL     OW83636   7.624   9.975   3.108
27210SOL    HW183637   7.675   9.895   3.091
27210SOL    HW283638   7.637   9.992   3.201
27211SOL     OW83639   5.641   7.104   2.632
27211SOL    HW183640   5.644   7.197   2.610
27211SOL    HW283641   5.690   7.061   2.562
27212SOL     OW83642   3.923   6.147   8.759
27212SOL    HW183643   3.874   6.065   8.771
27212SOL    HW283644   4.003   6.120   8.713
27213SOL     OW83645   8.636   4.238   5.410
27213SOL    HW183646   8.659   4.146   5.422
27213SOL    HW283647   8.597   4.241   5.322
27214SOL     OW83648   9.716   9.216   3.874
27214SOL    HW183649   9.679   9.265   3.801
27214SOL    HW283650   9.652   9.147   3.892
27215SOL     OW83651   8.773   9.574   6.240
27215SOL    HW183652   8.718   9.626   6.181
27215SOL    HW283653   8.861   9.611   6.230
27216SOL     OW83654   3.280   0.694   4.187
27216SOL    HW183655   3.247   0.748   4.258
27216SOL    HW283656   3.256   0.741   4.107
27217SOL     OW83657   7.417   7.567   7.618
27217SOL    HW183658   7.461   7.640   7.575
27217SOL    HW283659   7.486   7.502   7.632
27218SOL     OW83660   7.044   6.811   2.523
27218SOL    HW183661   7.063   6.737   2.464
27218SOL    HW283662   6.950   6.824   2.515
27219SOL     OW83663   9.108   0.958   0.556
27219SOL    HW183664   9.120   0.881   0.500
27219SOL    HW283665   9.192   0.968   0.600
27220SOL     OW83666   5.737   4.831   8.902
27220SOL    HW183667   5.744   4.925   8.886
27220SOL    HW283668   5.811   4.793   8.853
27221SOL     OW83669   8.232   8.665   4.209
27221SOL    HW183670   8.205   8.634   4.295
27221SOL    HW283671   8.292   8.737   4.226
27222SOL     OW83672   5.469   2.960   4.054
27222SOL    HW183673   5.463   2.864   4.051
27222SOL    HW283674   5.513   2.979   4.136
27223SOL     OW83675   7.576   5.432   7.248
27223SOL    HW183676   7.605   5.468   7.331
27223SOL    HW283677   7.490   5.471   7.233
27224SOL     OW83678   0.742   9.845   2.881
27224SOL    HW183679   0.775   9.766   2.838
27224SOL    HW283680   0.819   9.883   2.923
27225SOL     OW83681   2.977   4.417   1.786
27225SOL    HW183682   2.925   4.428   1.706
27225SOL    HW283683   2.982   4.504   1.824
27226SOL     OW83684   3.592   0.028   3.421
27226SOL    HW183685   3.629   0.010   3.507
27226SOL    HW283686   3.551  -0.055   3.395
27227SOL     OW83687   6.031   6.764   6.559
27227SOL    HW183688   5.940   6.789   6.545
27227SOL    HW283689   6.082   6.831   6.514
27228SOL     OW83690   3.484   9.699   3.061
27228SOL    HW183691   3.423   9.652   3.004
27228SOL    HW283692   3.428   9.753   3.116
27229SOL     OW83693   2.561   3.157   3.509
27229SOL    HW183694   2.493   3.092   3.527
27229SOL    HW283695   2.594   3.182   3.595
27230SOL     OW83696   2.488  10.822   8.736
27230SOL    HW183697   2.535  10.792   8.658
27230SOL    HW283698   2.515  10.913   8.747
27231SOL     OW83699  10.342  11.032   5.162
27231SOL    HW183700  10.316  11.024   5.254
27231SOL    HW283701  10.276  10.981   5.114
27232SOL     OW83702   9.778   0.639   6.413
27232SOL    HW183703   9.761   0.653   6.506
27232SOL    HW283704   9.807   0.548   6.407
27233SOL     OW83705   3.452   4.680   1.385
27233SOL    HW183706   3.366   4.700   1.348
27233SOL    HW283707   3.473   4.755   1.440
27234SOL     OW83708   8.044   4.676   8.203
27234SOL    HW183709   8.041   4.756   8.255
27234SOL    HW283710   8.025   4.705   8.113
27235SOL     OW83711   8.733   1.176   8.314
27235SOL    HW183712   8.822   1.148   8.337
27235SOL    HW283713   8.746   1.246   8.250
27236SOL     OW83714   1.660  10.845   1.588
27236SOL    HW183715   1.716  10.846   1.665
27236SOL    HW283716   1.669  10.756   1.553
27237SOL     OW83717   1.891   8.056   5.758
27237SOL    HW183718   1.864   7.970   5.725
27237SOL    HW283719   1.987   8.053   5.755
27238SOL     OW83720   8.886   1.041   7.397
27238SOL    HW183721   8.894   1.133   7.371
27238SOL    HW283722   8.973   1.003   7.380
27239SOL     OW83723   8.733   6.801   5.500
27239SOL    HW183724   8.767   6.886   5.472
27239SOL    HW283725   8.811   6.747   5.515
27240SOL     OW83726   5.156   5.045   8.589
27240SOL    HW183727   5.135   5.026   8.497
27240SOL    HW283728   5.213   5.121   8.585
27241SOL     OW83729   8.506   6.631   2.122
27241SOL    HW183730   8.428   6.576   2.115
27241SOL    HW283731   8.505   6.683   2.042
27242SOL     OW83732   0.244   0.979   7.972
27242SOL    HW183733   0.169   0.933   7.934
27242SOL    HW283734   0.248   1.061   7.924
27243SOL     OW83735   9.013  11.093  10.844
27243SOL    HW183736   9.034  11.185  10.861
27243SOL    HW283737   8.921  11.084  10.869
27244SOL     OW83738   6.206   1.962   7.744
27244SOL    HW183739   6.189   2.047   7.704
27244SOL    HW283740   6.140   1.954   7.812
27245SOL     OW83741   0.544   6.942   8.720
27245SOL    HW183742   0.593   7.024   8.717
27245SOL    HW283743   0.571   6.895   8.641
27246SOL     OW83744   8.157   7.261   3.834
27246SOL    HW183745   8.130   7.308   3.755
27246SOL    HW283746   8.181   7.173   3.802
27247SOL     OW83747   8.169   9.368   3.299
27247SOL    HW183748   8.105   9.321   3.246
27247SOL    HW283749   8.193   9.306   3.368
27248SOL     OW83750   5.064   1.264   0.427
27248SOL    HW183751   5.152   1.252   0.391
27248SOL    HW283752   5.027   1.336   0.376
27249SOL     OW83753   3.295   9.113   2.866
27249SOL    HW183754   3.269   9.093   2.776
27249SOL    HW283755   3.219   9.088   2.919
27250SOL     OW83756   5.619   9.487   1.828
27250SOL    HW183757   5.530   9.487   1.863
27250SOL    HW283758   5.658   9.568   1.859
27251SOL     OW83759   0.038  10.065   7.906
27251SOL    HW183760  -0.050  10.097   7.926
27251SOL    HW283761   0.063  10.014   7.983
27252SOL     OW83762   5.406   8.520   8.148
27252SOL    HW183763   5.487   8.508   8.197
27252SOL    HW283764   5.338   8.486   8.205
27253SOL     OW83765   6.224   9.664   4.642
27253SOL    HW183766   6.312   9.634   4.617
27253SOL    HW283767   6.194   9.599   4.705
27254SOL     OW83768   9.478  10.163   8.413
27254SOL    HW183769   9.449  10.106   8.341
27254SOL    HW283770   9.455  10.251   8.384
27255SOL     OW83771   3.365  10.311   7.758
27255SOL    HW183772   3.324  10.243   7.705
27255SOL    HW283773   3.293  10.350   7.806
27256SOL     OW83774   2.764  10.505   5.906
27256SOL    HW183775   2.764  10.601   5.910
27256SOL    HW283776   2.840  10.479   5.958
27257SOL     OW83777   6.412   9.931   0.437
27257SOL    HW183778   6.407   9.936   0.532
27257SOL    HW283779   6.455  10.012   0.411
27258SOL     OW83780   4.896   7.103   2.997
27258SOL    HW183781   4.938   7.026   2.959
27258SOL    HW283782   4.810   7.072   3.024
27259SOL     OW83783   6.889   9.443   9.262
27259SOL    HW183784   6.963   9.470   9.207
27259SOL    HW283785   6.903   9.488   9.345
27260SOL     OW83786   8.063   7.191   5.406
27260SOL    HW183787   8.020   7.212   5.489
27260SOL    HW283788   8.078   7.276   5.364
27261SOL     OW83789  10.808   9.352   0.897
27261SOL    HW183790  10.888   9.405   0.904
27261SOL    HW283791  10.816   9.308   0.812
27262SOL     OW83792   7.338   6.956   4.838
27262SOL    HW183793   7.301   6.884   4.889
27262SOL    HW283794   7.311   7.035   4.885
27263SOL     OW83795   3.100   0.158  10.202
27263SOL    HW183796   3.112   0.167  10.296
27263SOL    HW283797   3.176   0.201  10.163
27264SOL     OW83798   0.036  10.741   0.421
27264SOL    HW183799   0.029  10.660   0.471
27264SOL    HW283800  -0.026  10.730   0.348
27265SOL     OW83801   7.011   6.801   1.145
27265SOL    HW183802   7.061   6.810   1.064
27265SOL    HW283803   7.077   6.780   1.211
27266SOL     OW83804  10.685   9.622   5.931
27266SOL    HW183805  10.743   9.685   5.888
27266SOL    HW283806  10.744   9.555   5.966
27267SOL     OW83807   1.706   7.959   4.608
27267SOL    HW183808   1.732   7.914   4.527
27267SOL    HW283809   1.788   7.995   4.643
27268SOL     OW83810   4.165   0.300   8.511
27268SOL    HW183811   4.128   0.387   8.502
27268SOL    HW283812   4.254   0.314   8.544
27269SOL     OW83813   5.062  10.148   5.315
27269SOL    HW183814   5.072  10.189   5.229
27269SOL    HW283815   5.097  10.059   5.303
27270SOL     OW83816   5.984   4.326   5.667
27270SOL    HW183817   5.982   4.263   5.594
27270SOL    HW283818   6.023   4.405   5.629
27271SOL     OW83819   7.290   9.987   5.927
27271SOL    HW183820   7.226  10.016   5.862
27271SOL    HW283821   7.300  10.061   5.987
27272SOL     OW83822   7.734   1.387   2.909
27272SOL    HW183823   7.729   1.318   2.842
27272SOL    HW283824   7.707   1.466   2.863
27273SOL     OW83825  10.172   5.780   8.450
27273SOL    HW183826  10.095   5.727   8.431
27273SOL    HW283827  10.168   5.796   8.544
27274SOL     OW83828   8.986   9.742   7.913
27274SOL    HW183829   9.050   9.770   7.978
27274SOL    HW283830   8.968   9.820   7.861
27275SOL     OW83831   9.143  11.027   7.475
27275SOL    HW183832   9.163  10.969   7.548
27275SOL    HW283833   9.055  11.060   7.494
27276SOL     OW83834   5.900  11.019   8.787
27276SOL    HW183835   5.934  10.933   8.812
27276SOL    HW283836   5.906  11.021   8.691
27277SOL     OW83837   3.704   8.345   3.092
27277SOL    HW183838   3.795   8.324   3.111
27277SOL    HW283839   3.697   8.336   2.997
27278SOL     OW83840   1.588   7.419   2.263
27278SOL    HW183841   1.652   7.485   2.236
27278SOL    HW283842   1.531   7.464   2.324
27279SOL     OW83843   5.687   5.859   8.278
27279SOL    HW183844   5.655   5.796   8.213
27279SOL    HW283845   5.618   5.925   8.283
27280SOL     OW83846   6.125   9.971   5.585
27280SOL    HW183847   6.113   9.931   5.498
27280SOL    HW283848   6.155  10.060   5.567
27281SOL     OW83849   8.802   6.241   8.611
27281SOL    HW183850   8.875   6.297   8.584
27281SOL    HW283851   8.780   6.271   8.699
27282SOL     OW83852   6.698   5.279   3.299
27282SOL    HW183853   6.694   5.330   3.380
27282SOL    HW283854   6.746   5.199   3.323
27283SOL     OW83855  10.441   5.081   5.740
27283SOL    HW183856  10.455   5.171   5.770
27283SOL    HW283857  10.346   5.069   5.742
27284SOL     OW83858   9.729   8.665   5.987
27284SOL    HW183859   9.814   8.706   6.001
27284SOL    HW283860   9.750   8.577   5.954
27285SOL     OW83861   6.538   8.326   7.187
27285SOL    HW183862   6.468   8.369   7.236
27285SOL    HW283863   6.503   8.239   7.166
27286SOL     OW83864   7.646   4.532   9.477
27286SOL    HW183865   7.605   4.481   9.407
27286SOL    HW283866   7.694   4.467   9.529
27287SOL     OW83867   8.012   0.325   3.785
27287SOL    HW183868   8.012   0.380   3.706
27287SOL    HW283869   7.938   0.266   3.773
27288SOL     OW83870   4.398   7.150   3.884
27288SOL    HW183871   4.492   7.166   3.894
27288SOL    HW283872   4.356   7.214   3.940
27289SOL     OW83873  10.057   7.737   0.266
27289SOL    HW183874  10.142   7.723   0.308
27289SOL    HW283875  10.078   7.786   0.186
27290SOL     OW83876   0.449   3.878   7.374
27290SOL    HW183877   0.462   3.811   7.307
27290SOL    HW283878   0.360   3.863   7.405
27291SOL     OW83879   3.964   1.291   6.385
27291SOL    HW183880   4.029   1.226   6.357
27291SOL    HW283881   3.960   1.282   6.480
27292SOL     OW83882   9.966   8.889   9.171
27292SOL    HW183883   9.879   8.928   9.178
27292SOL    HW283884  10.016   8.952   9.119
27293SOL     OW83885   7.312   8.722   6.169
27293SOL    HW183886   7.390   8.774   6.188
27293SOL    HW283887   7.265   8.719   6.252
27294SOL     OW83888   5.615   5.619  10.543
27294SOL    HW183889   5.672   5.572  10.603
27294SOL    HW283890   5.558   5.671  10.599
27295SOL     OW83891   7.775   0.821   4.175
27295SOL    HW183892   7.834   0.773   4.117
27295SOL    HW283893   7.710   0.860   4.116
27296SOL     OW83894   7.016   7.985   8.209
27296SOL    HW183895   6.975   7.992   8.295
27296SOL    HW283896   7.080   7.914   8.219
27297SOL     OW83897   6.036   8.661   9.737
27297SOL    HW183898   6.040   8.734   9.799
27297SOL    HW283899   5.948   8.665   9.700
27298SOL     OW83900   1.088  10.706   9.926
27298SOL    HW183901   1.025  10.768   9.962
27298SOL    HW283902   1.158  10.702   9.991
27299SOL     OW83903   7.366   8.742   5.606
27299SOL    HW183904   7.454   8.778   5.597
27299SOL    HW283905   7.327   8.791   5.678
27300SOL     OW83906  10.608  10.677   4.100
27300SOL    HW183907  10.616  10.718   4.186
27300SOL    HW283908  10.588  10.749   4.040
27301SOL     OW83909   0.668   5.448   5.692
27301SOL    HW183910   0.672   5.360   5.653
27301SOL    HW283911   0.730   5.500   5.641
27302SOL     OW83912   8.732  10.768   3.664
27302SOL    HW183913   8.745  10.694   3.723
27302SOL    HW283914   8.813  10.772   3.613
27303SOL     OW83915   9.400   7.353  10.514
27303SOL    HW183916   9.393   7.284  10.580
27303SOL    HW283917   9.348   7.321  10.440
27304SOL     OW83918   0.303   7.304   4.241
27304SOL    HW183919   0.338   7.221   4.208
27304SOL    HW283920   0.331   7.369   4.176
27305SOL     OW83921   6.986  10.231   3.337
27305SOL    HW183922   6.913  10.291   3.323
27305SOL    HW283923   7.030  10.227   3.252
27306SOL     OW83924   4.694   6.690   2.912
27306SOL    HW183925   4.786   6.666   2.905
27306SOL    HW283926   4.659   6.678   2.823
27307SOL     OW83927   1.674   9.688   6.648
27307SOL    HW183928   1.757   9.675   6.693
27307SOL    HW283929   1.612   9.709   6.717
27308SOL     OW83930   5.081   8.650   2.285
27308SOL    HW183931   5.063   8.614   2.197
27308SOL    HW283932   5.006   8.705   2.304
27309SOL     OW83933   6.569   7.750   4.821
27309SOL    HW183934   6.662   7.772   4.818
27309SOL    HW283935   6.529   7.808   4.756
27310SOL     OW83936   8.847   9.577   8.313
27310SOL    HW183937   8.884   9.492   8.338
27310SOL    HW283938   8.905   9.641   8.353
27311SOL     OW83939   9.622  10.777   9.995
27311SOL    HW183940   9.621  10.766   9.900
27311SOL    HW283941   9.554  10.719  10.027
27312SOL     OW83942   8.439   6.449   8.556
27312SOL    HW183943   8.532   6.432   8.574
27312SOL    HW283944   8.403   6.363   8.532
27313SOL     OW83945   7.872   7.613   4.488
27313SOL    HW183946   7.822   7.532   4.500
27313SOL    HW283947   7.856   7.663   4.568
27314SOL     OW83948   0.703  10.570   9.179
27314SOL    HW183949   0.762  10.599   9.109
27314SOL    HW283950   0.712  10.475   9.180
27315SOL     OW83951   3.244   1.603   9.611
27315SOL    HW183952   3.289   1.614   9.695
27315SOL    HW283953   3.315   1.584   9.549
27316SOL     OW83954   1.958   2.310   0.763
27316SOL    HW183955   1.881   2.298   0.708
27316SOL    HW283956   2.020   2.358   0.707
27317SOL     OW83957   9.936  10.863   5.353
27317SOL    HW183958   9.864  10.851   5.415
27317SOL    HW283959  10.008  10.811   5.389
27318SOL     OW83960   8.686   0.235   0.933
27318SOL    HW183961   8.712   0.150   0.896
27318SOL    HW283962   8.767   0.272   0.967
27319SOL     OW83963   5.749   8.759   4.912
27319SOL    HW183964   5.660   8.738   4.938
27319SOL    HW283965   5.786   8.806   4.986
27320SOL     OW83966   6.403   0.082  10.418
27320SOL    HW183967   6.389  -0.007  10.385
27320SOL    HW283968   6.406   0.072  10.513
27321SOL     OW83969   0.752   6.388   7.060
27321SOL    HW183970   0.661   6.418   7.060
27321SOL    HW283971   0.795   6.442   7.126
27322SOL     OW83972   8.019   4.867   3.175
27322SOL    HW183973   7.983   4.858   3.086
27322SOL    HW283974   7.946   4.900   3.227
27323SOL     OW83975   7.172   8.273   4.127
27323SOL    HW183976   7.124   8.352   4.149
27323SOL    HW283977   7.106   8.204   4.128
27324SOL     OW83978   1.261   5.931   6.008
27324SOL    HW183979   1.230   5.979   5.931
27324SOL    HW283980   1.241   5.988   6.082
27325SOL     OW83981   1.269   8.687   1.794
27325SOL    HW183982   1.183   8.649   1.775
27325SOL    HW283983   1.301   8.718   1.709
27326SOL     OW83984  10.176   8.573   9.601
27326SOL    HW183985  10.256   8.550   9.648
27326SOL    HW283986  10.105   8.553   9.662
27327SOL     OW83987   5.451   6.327   8.749
27327SOL    HW183988   5.417   6.284   8.827
27327SOL    HW283989   5.391   6.400   8.734
27328SOL     OW83990  10.061   7.966   8.699
27328SOL    HW183991  10.020   8.018   8.767
27328SOL    HW283992  10.140   7.931   8.740
27329SOL     OW83993   9.974   5.280   7.081
27329SOL    HW183994   9.886   5.309   7.103
27329SOL    HW283995  10.003   5.229   7.157
27330SOL     OW83996   7.759   5.363  10.404
27330SOL    HW183997   7.727   5.360  10.494
27330SOL    HW283998   7.702   5.303  10.356
27331SOL     OW83999   8.541   1.852   9.611
27331SOL    HW184000   8.578   1.896   9.534
27331SOL    HW284001   8.462   1.809   9.578
27332SOL     OW84002   8.210   9.135   5.880
27332SOL    HW184003   8.191   9.118   5.972
27332SOL    HW284004   8.135   9.185   5.849
27333SOL     OW84005   0.668   0.586   1.031
27333SOL    HW184006   0.600   0.612   1.093
27333SOL    HW284007   0.620   0.556   0.953
27334SOL     OW84008   1.430   6.359   9.641
27334SOL    HW184009   1.522   6.335   9.627
27334SOL    HW284010   1.432   6.421   9.714
27335SOL     OW84011   1.293   2.600   0.597
27335SOL    HW184012   1.296   2.647   0.514
27335SOL    HW284013   1.207   2.620   0.633
27336SOL     OW84014   3.383   9.680   9.710
27336SOL    HW184015   3.471   9.689   9.747
27336SOL    HW284016   3.327   9.660   9.785
27337SOL     OW84017   5.212   6.387   7.883
27337SOL    HW184018   5.219   6.463   7.941
27337SOL    HW284019   5.120   6.361   7.889
27338SOL     OW84020   1.057   6.129   1.988
27338SOL    HW184021   1.023   6.198   2.044
27338SOL    HW284022   1.104   6.070   2.047
27339SOL     OW84023   9.487   5.342   5.059
27339SOL    HW184024   9.438   5.373   5.135
27339SOL    HW284025   9.474   5.247   5.059
27340SOL     OW84026   9.745   6.357   5.337
27340SOL    HW184027   9.816   6.303   5.303
27340SOL    HW284028   9.724   6.417   5.265
27341SOL     OW84029   3.740   5.486   4.985
27341SOL    HW184030   3.755   5.574   5.018
27341SOL    HW284031   3.811   5.434   5.023
27342SOL     OW84032   9.157   4.677  10.930
27342SOL    HW184033   9.148   4.581  10.933
27342SOL    HW284034   9.110   4.703  10.851
27343SOL     OW84035   7.042   6.845   7.565
27343SOL    HW184036   7.111   6.812   7.507
27343SOL    HW284037   6.965   6.792   7.544
27344SOL     OW84038   9.798   1.047   2.203
27344SOL    HW184039   9.731   0.992   2.162
27344SOL    HW284040   9.852   1.076   2.129
27345SOL     OW84041  11.039   6.659   5.414
27345SOL    HW184042  11.020   6.742   5.457
27345SOL    HW284043  10.955   6.630   5.379
27346SOL     OW84044   0.624   7.668   8.274
27346SOL    HW184045   0.652   7.678   8.183
27346SOL    HW284046   0.557   7.600   8.271
27347SOL     OW84047   6.733   6.366   6.424
27347SOL    HW184048   6.803   6.334   6.367
27347SOL    HW284049   6.776   6.431   6.480
27348SOL     OW84050   4.631   1.961   8.495
27348SOL    HW184051   4.611   2.054   8.485
27348SOL    HW284052   4.702   1.945   8.432
27349SOL     OW84053   7.106   6.796   7.044
27349SOL    HW184054   7.132   6.725   6.984
27349SOL    HW284055   7.053   6.854   6.990
27350SOL     OW84056   9.596   8.154   9.143
27350SOL    HW184057   9.606   8.210   9.066
27350SOL    HW284058   9.502   8.154   9.160
27351SOL     OW84059   6.726   5.514   5.641
27351SOL    HW184060   6.761   5.467   5.565
27351SOL    HW284061   6.649   5.560   5.607
27352SOL     OW84062   5.882   0.184  10.740
27352SOL    HW184063   5.911   0.185  10.831
27352SOL    HW284064   5.960   0.208  10.690
27353SOL     OW84065   2.542   1.602   7.908
27353SOL    HW184066   2.473   1.539   7.930
27353SOL    HW284067   2.516   1.683   7.951
27354SOL     OW84068   2.152   4.691   7.861
27354SOL    HW184069   2.167   4.670   7.769
27354SOL    HW284070   2.240   4.705   7.897
27355SOL     OW84071   2.638   2.627   3.784
27355SOL    HW184072   2.673   2.543   3.815
27355SOL    HW284073   2.543   2.616   3.786
27356SOL     OW84074   1.930   1.292   5.716
27356SOL    HW184075   1.960   1.375   5.752
27356SOL    HW284076   1.839   1.285   5.743
27357SOL     OW84077   9.582   8.916  10.901
27357SOL    HW184078   9.605   8.826  10.925
27357SOL    HW284079   9.547   8.954  10.981
27358SOL     OW84080  10.806   4.636   5.588
27358SOL    HW184081  10.738   4.600   5.645
27358SOL    HW284082  10.829   4.563   5.530
27359SOL     OW84083   6.653   5.255   6.442
27359SOL    HW184084   6.596   5.194   6.394
27359SOL    HW284085   6.707   5.198   6.497
27360SOL     OW84086   9.668   8.821   9.756
27360SOL    HW184087   9.688   8.904   9.799
27360SOL    HW284088   9.693   8.754   9.819
27361SOL     OW84089   9.428   4.980   9.376
27361SOL    HW184090   9.355   4.943   9.425
27361SOL    HW284091   9.440   5.067   9.412
27362SOL     OW84092   2.917   7.920   4.116
27362SOL    HW184093   2.844   7.954   4.167
27362SOL    HW284094   2.930   7.831   4.149
27363SOL     OW84095   3.722   3.388   5.982
27363SOL    HW184096   3.634   3.385   6.020
27363SOL    HW284097   3.750   3.296   5.980
27364SOL     OW84098   5.410  10.002   6.528
27364SOL    HW184099   5.495  10.017   6.569
27364SOL    HW284100   5.398  10.077   6.470
27365SOL     OW84101   4.407   0.387   7.396
27365SOL    HW184102   4.359   0.318   7.350
27365SOL    HW284103   4.384   0.467   7.349
27366SOL     OW84104   8.902   4.213   8.041
27366SOL    HW184105   8.831   4.168   8.086
27366SOL    HW284106   8.872   4.303   8.033
27367SOL     OW84107   8.646   1.314   7.774
27367SOL    HW184108   8.679   1.295   7.862
27367SOL    HW284109   8.551   1.315   7.784
27368SOL     OW84110  10.653   1.062   6.491
27368SOL    HW184111  10.631   1.152   6.514
27368SOL    HW284112  10.676   1.066   6.398
27369SOL     OW84113   5.003   8.430   5.934
27369SOL    HW184114   4.926   8.377   5.954
27369SOL    HW284115   4.986   8.514   5.975
27370SOL     OW84116   7.784   5.576   3.498
27370SOL    HW184117   7.726   5.625   3.556
27370SOL    HW284118   7.871   5.586   3.536
27371SOL     OW84119   4.843   0.462   4.879
27371SOL    HW184120   4.834   0.480   4.785
27371SOL    HW284121   4.805   0.538   4.922
27372SOL     OW84122   8.229   7.160   5.056
27372SOL    HW184123   8.279   7.109   5.120
27372SOL    HW284124   8.220   7.101   4.981
27373SOL     OW84125   9.441   5.268   9.370
27373SOL    HW184126   9.527   5.249   9.331
27373SOL    HW284127   9.447   5.359   9.399
27374SOL     OW84128   8.013   7.178   5.935
27374SOL    HW184129   7.948   7.116   5.901
27374SOL    HW284130   7.961   7.249   5.972
27375SOL     OW84131   4.698   5.671   6.732
27375SOL    HW184132   4.750   5.592   6.746
27375SOL    HW284133   4.623   5.661   6.791
27376SOL     OW84134  10.493   1.012   4.688
27376SOL    HW184135  10.516   1.047   4.602
27376SOL    HW284136  10.398   1.001   4.685
27377SOL     OW84137   7.884   9.689   1.757
27377SOL    HW184138   7.892   9.746   1.833
27377SOL    HW284139   7.968   9.698   1.711
27378SOL     OW84140   8.105   0.453   5.311
27378SOL    HW184141   8.194   0.445   5.346
27378SOL    HW284142   8.115   0.505   5.231
27379SOL     OW84143   4.649   0.754   9.240
27379SOL    HW184144   4.706   0.762   9.163
27379SOL    HW284145   4.592   0.680   9.220
27380SOL     OW84146   7.251   6.374   2.123
27380SOL    HW184147   7.194   6.297   2.122
27380SOL    HW284148   7.274   6.386   2.215
27381SOL     OW84149   3.988   9.056   0.897
27381SOL    HW184150   3.902   9.016   0.887
27381SOL    HW284151   4.048   8.996   0.851
27382SOL     OW84152  10.639   5.224   7.750
27382SOL    HW184153  10.584   5.280   7.695
27382SOL    HW284154  10.716   5.277   7.769
27383SOL     OW84155   5.904   4.187  10.683
27383SOL    HW184156   5.951   4.245  10.623
27383SOL    HW284157   5.820   4.172  10.640
27384SOL     OW84158   6.702   4.013   2.424
27384SOL    HW184159   6.614   3.982   2.446
27384SOL    HW284160   6.739   4.041   2.507
27385SOL     OW84161   0.726   3.542   4.118
27385SOL    HW184162   0.770   3.459   4.099
27385SOL    HW284163   0.716   3.542   4.213
27386SOL     OW84164   5.043   8.534   0.180
27386SOL    HW184165   4.962   8.584   0.189
27386SOL    HW284166   5.041   8.471   0.253
27387SOL     OW84167   5.389   7.112   8.316
27387SOL    HW184168   5.430   7.117   8.229
27387SOL    HW284169   5.402   7.199   8.354
27388SOL     OW84170   0.356   7.761   7.522
27388SOL    HW184171   0.362   7.838   7.578
27388SOL    HW284172   0.284   7.709   7.559
27389SOL     OW84173   7.531   8.277  10.909
27389SOL    HW184174   7.435   8.272  10.910
27389SOL    HW284175   7.557   8.223  10.834
27390SOL     OW84176   1.748   8.901   4.478
27390SOL    HW184177   1.684   8.930   4.542
27390SOL    HW284178   1.705   8.914   4.393
27391SOL     OW84179   7.809  10.715   6.275
27391SOL    HW184180   7.761  10.701   6.356
27391SOL    HW284181   7.805  10.631   6.230
27392SOL     OW84182   2.193   6.272   8.233
27392SOL    HW184183   2.102   6.266   8.260
27392SOL    HW284184   2.239   6.210   8.290
27393SOL     OW84185   6.771   2.026   9.152
27393SOL    HW184186   6.732   2.103   9.111
27393SOL    HW284187   6.699   1.963   9.157
27394SOL     OW84188   7.523   6.125   9.457
27394SOL    HW184189   7.484   6.208   9.429
27394SOL    HW284190   7.586   6.104   9.388
27395SOL     OW84191   7.239   1.598   2.696
27395SOL    HW184192   7.199   1.619   2.611
27395SOL    HW284193   7.236   1.502   2.701
27396SOL     OW84194   2.832   1.266   8.976
27396SOL    HW184195   2.829   1.229   9.064
27396SOL    HW284196   2.918   1.240   8.942
27397SOL     OW84197   3.618   9.499   4.432
27397SOL    HW184198   3.671   9.534   4.360
27397SOL    HW284199   3.537   9.549   4.428
27398SOL     OW84200  10.463   5.739   4.484
27398SOL    HW184201  10.485   5.704   4.397
27398SOL    HW284202  10.368   5.745   4.484
27399SOL     OW84203   1.060   9.071   7.688
27399SOL    HW184204   1.137   9.048   7.635
27399SOL    HW284205   1.064   9.011   7.762
27400SOL     OW84206   4.758   8.636   0.205
27400SOL    HW184207   4.744   8.729   0.220
27400SOL    HW284208   4.686   8.610   0.148
27401SOL     OW84209  10.160   7.765   0.580
27401SOL    HW184210  10.156   7.730   0.669
27401SOL    HW284211  10.247   7.741   0.548
27402SOL     OW84212   5.621   4.145   5.683
27402SOL    HW184213   5.683   4.160   5.754
27402SOL    HW284214   5.674   4.103   5.615
27403SOL     OW84215   8.447   2.093   3.590
27403SOL    HW184216   8.505   2.120   3.519
27403SOL    HW284217   8.382   2.163   3.596
27404SOL     OW84218   2.358   9.756  11.006
27404SOL    HW184219   2.319   9.753  11.093
27404SOL    HW284220   2.285   9.776  10.947
27405SOL     OW84221   6.238   2.630   0.526
27405SOL    HW184222   6.257   2.618   0.433
27405SOL    HW284223   6.144   2.613   0.534
27406SOL     OW84224   5.630   3.832   3.720
27406SOL    HW184225   5.718   3.810   3.750
27406SOL    HW284226   5.590   3.747   3.699
27407SOL     OW84227   2.246   9.551   3.011
27407SOL    HW184228   2.271   9.634   3.052
27407SOL    HW284229   2.329   9.507   2.992
27408SOL     OW84230   9.564   9.176   6.568
27408SOL    HW184231   9.544   9.220   6.650
27408SOL    HW284232   9.575   9.084   6.592
27409SOL     OW84233   4.079  10.098   3.426
27409SOL    HW184234   4.050  10.051   3.348
27409SOL    HW284235   4.023  10.175   3.429
27410SOL     OW84236  10.592   7.623   7.575
27410SOL    HW184237  10.498   7.612   7.591
27410SOL    HW284238  10.622   7.535   7.551
27411SOL     OW84239   5.499   0.304   6.564
27411SOL    HW184240   5.569   0.245   6.592
27411SOL    HW284241   5.426   0.246   6.543
27412SOL     OW84242   4.381   4.028   0.396
27412SOL    HW184243   4.314   4.074   0.345
27412SOL    HW284244   4.333   3.990   0.469
27413SOL     OW84245  10.195   4.313   7.348
27413SOL    HW184246  10.291   4.317   7.353
27413SOL    HW284247  10.175   4.332   7.256
27414SOL     OW84248   2.657   8.068   3.824
27414SOL    HW184249   2.590   8.000   3.821
27414SOL    HW284250   2.717   8.040   3.893
27415SOL     OW84251   8.623   5.842   7.906
27415SOL    HW184252   8.598   5.851   7.998
27415SOL    HW284253   8.605   5.750   7.885
27416SOL     OW84254   9.458   2.546   8.203
27416SOL    HW184255   9.483   2.515   8.290
27416SOL    HW284256   9.374   2.504   8.186
27417SOL     OW84257   7.859   7.623   5.117
27417SOL    HW184258   7.825   7.574   5.041
27417SOL    HW284259   7.917   7.561   5.161
27418SOL     OW84260   2.643   8.908   5.041
27418SOL    HW184261   2.651   8.848   5.115
27418SOL    HW284262   2.732   8.916   5.007
27419SOL     OW84263   8.268   6.007   7.727
27419SOL    HW184264   8.236   5.921   7.698
27419SOL    HW284265   8.286   6.054   7.646
27420SOL     OW84266   8.394   5.575   4.094
27420SOL    HW184267   8.355   5.509   4.036
27420SOL    HW284268   8.485   5.547   4.104
27421SOL     OW84269   7.866   1.082   3.191
27421SOL    HW184270   7.874   1.004   3.247
27421SOL    HW284271   7.824   1.049   3.111
27422SOL     OW84272   9.805   0.582   2.189
27422SOL    HW184273   9.842   0.633   2.117
27422SOL    HW284274   9.878   0.568   2.249
27423SOL     OW84275   5.932   8.633  10.570
27423SOL    HW184276   5.843   8.666  10.578
27423SOL    HW284277   5.976   8.697  10.514
27424SOL     OW84278  10.404   6.572   5.991
27424SOL    HW184279  10.424   6.479   5.981
27424SOL    HW284280  10.412   6.608   5.902
27425SOL     OW84281   6.517   7.563   3.995
27425SOL    HW184282   6.470   7.581   4.076
27425SOL    HW284283   6.609   7.569   4.019
27426SOL     OW84284   0.160   7.530   9.201
27426SOL    HW184285   0.111   7.493   9.127
27426SOL    HW284286   0.149   7.624   9.192
27427SOL     OW84287   9.120   5.163   8.781
27427SOL    HW184288   9.135   5.200   8.694
27427SOL    HW284289   9.129   5.068   8.769
27428SOL     OW84290   7.813   6.647   7.140
27428SOL    HW184291   7.738   6.591   7.117
27428SOL    HW284292   7.884   6.615   7.083
27429SOL     OW84293   7.435   1.654   0.490
27429SOL    HW184294   7.355   1.705   0.504
27429SOL    HW284295   7.478   1.652   0.575
27430SOL     OW84296  10.038   7.178   8.664
27430SOL    HW184297  10.044   7.224   8.747
27430SOL    HW284298  10.111   7.212   8.612
27431SOL     OW84299   5.178   6.637   9.195
27431SOL    HW184300   5.228   6.642   9.276
27431SOL    HW284301   5.244   6.638   9.126
27432SOL     OW84302   3.663   7.523   2.394
27432SOL    HW184303   3.668   7.509   2.488
27432SOL    HW284304   3.755   7.525   2.365
27433SOL     OW84305   9.668   0.732  10.953
27433SOL    HW184306   9.759   0.703  10.962
27433SOL    HW284307   9.647   0.771  11.038
27434SOL     OW84308   3.664   0.422  10.312
27434SOL    HW184309   3.675   0.485  10.382
27434SOL    HW284310   3.746   0.372  10.312
27435SOL     OW84311   9.657  10.181   3.426
27435SOL    HW184312   9.581  10.134   3.392
27435SOL    HW284313   9.675  10.248   3.360
27436SOL     OW84314   4.152  10.836   8.654
27436SOL    HW184315   4.172  10.793   8.571
27436SOL    HW284316   4.065  10.804   8.677
27437SOL     OW84317   6.997   2.891   7.799
27437SOL    HW184318   6.984   2.812   7.745
27437SOL    HW284319   6.936   2.955   7.763
27438SOL     OW84320   5.684   9.047   4.570
27438SOL    HW184321   5.620   8.982   4.598
27438SOL    HW284322   5.708   9.020   4.481
27439SOL     OW84323   7.485   9.174  10.199
27439SOL    HW184324   7.479   9.191  10.293
27439SOL    HW284325   7.570   9.210  10.173
27440SOL     OW84326   3.259   4.994   9.204
27440SOL    HW184327   3.181   4.946   9.232
27440SOL    HW284328   3.312   4.929   9.157
27441SOL     OW84329   6.456   1.089   0.037
27441SOL    HW184330   6.500   1.168   0.007
27441SOL    HW284331   6.426   1.110   0.126
27442SOL     OW84332   9.112   0.848   3.387
27442SOL    HW184333   9.109   0.943   3.375
27442SOL    HW284334   9.116   0.813   3.298
27443SOL     OW84335   9.877  10.170  10.127
27443SOL    HW184336   9.940  10.176  10.199
27443SOL    HW284337   9.792  10.181  10.168
27444SOL     OW84338   8.145   7.063   1.784
27444SOL    HW184339   8.166   6.992   1.844
27444SOL    HW284340   8.151   7.023   1.697
27445SOL     OW84341   6.534   9.755  10.474
27445SOL    HW184342   6.527   9.661  10.456
27445SOL    HW284343   6.614   9.763  10.526
27446SOL     OW84344   8.893   0.647   6.702
27446SOL    HW184345   8.898   0.716   6.636
27446SOL    HW284346   8.984   0.624   6.720
27447SOL     OW84347   4.250   4.589   9.810
27447SOL    HW184348   4.182   4.573   9.744
27447SOL    HW284349   4.292   4.670   9.782
27448SOL     OW84350   3.720   9.115   4.316
27448SOL    HW184351   3.675   9.176   4.374
27448SOL    HW284352   3.812   9.119   4.343
27449SOL     OW84353   3.972   1.314   8.848
27449SOL    HW184354   4.056   1.291   8.808
27449SOL    HW284355   3.919   1.234   8.838
27450SOL     OW84356   4.423   8.360   7.715
27450SOL    HW184357   4.513   8.332   7.733
27450SOL    HW284358   4.405   8.428   7.780
27451SOL     OW84359   9.836   7.573   7.449
27451SOL    HW184360   9.905   7.509   7.468
27451SOL    HW284361   9.879   7.639   7.394
27452SOL     OW84362  10.767  10.074   6.525
27452SOL    HW184363  10.714  10.091   6.447
27452SOL    HW284364  10.839  10.136   6.519
27453SOL     OW84365   5.407   9.681   1.183
27453SOL    HW184366   5.474   9.613   1.191
27453SOL    HW284367   5.401   9.720   1.270
27454SOL     OW84368   6.782   7.005   7.192
27454SOL    HW184369   6.694   7.018   7.156
27454SOL    HW284370   6.787   6.910   7.208
27455SOL     OW84371   2.000   9.337   2.189
27455SOL    HW184372   2.071   9.388   2.150
27455SOL    HW284373   1.921   9.366   2.143
27456SOL     OW84374   4.348   8.681   6.889
27456SOL    HW184375   4.312   8.746   6.829
27456SOL    HW284376   4.282   8.612   6.892
27457SOL     OW84377   9.558   9.133   7.162
27457SOL    HW184378   9.486   9.132   7.224
27457SOL    HW284379   9.555   9.046   7.121
27458SOL     OW84380   3.920  10.281   7.705
27458SOL    HW184381   3.851  10.345   7.687
27458SOL    HW284382   3.874  10.208   7.748
27459SOL     OW84383   9.867   8.439   5.848
27459SOL    HW184384   9.960   8.435   5.871
27459SOL    HW284385   9.826   8.372   5.903
27460SOL     OW84386   3.843  10.113   9.745
27460SOL    HW184387   3.915  10.051   9.731
27460SOL    HW284388   3.871  10.166   9.819
27461SOL     OW84389   4.496   5.325   7.890
27461SOL    HW184390   4.479   5.241   7.846
27461SOL    HW284391   4.550   5.374   7.827
27462SOL     OW84392   8.945   0.438   7.236
27462SOL    HW184393   8.868   0.398   7.196
27462SOL    HW284394   8.976   0.500   7.170
27463SOL     OW84395   7.429   8.022   4.518
27463SOL    HW184396   7.405   8.094   4.460
27463SOL    HW284397   7.519   8.000   4.493
27464SOL     OW84398   7.480  10.847  10.257
27464SOL    HW184399   7.506  10.792  10.331
27464SOL    HW284400   7.562  10.886  10.225
27465SOL     OW84401   4.530   5.953   5.034
27465SOL    HW184402   4.566   5.979   5.118
27465SOL    HW284403   4.435   5.951   5.048
27466SOL     OW84404   4.224   3.437   7.854
27466SOL    HW184405   4.253   3.527   7.866
27466SOL    HW284406   4.191   3.434   7.764
27467SOL     OW84407  10.069  10.570   5.678
27467SOL    HW184408  10.058  10.478   5.700
27467SOL    HW284409  10.104  10.610   5.757
27468SOL     OW84410   5.683   3.035   5.108
27468SOL    HW184411   5.753   3.001   5.052
27468SOL    HW284412   5.610   3.049   5.048
27469SOL     OW84413   6.363   4.808   1.617
27469SOL    HW184414   6.295   4.874   1.605
27469SOL    HW284415   6.446   4.855   1.607
27470SOL     OW84416   6.784   1.806   3.122
27470SOL    HW184417   6.739   1.768   3.198
27470SOL    HW284418   6.861   1.750   3.109
27471SOL     OW84419   7.308  10.311   9.346
27471SOL    HW184420   7.330  10.289   9.255
27471SOL    HW284421   7.221  10.350   9.341
27472SOL     OW84422   6.653   3.371  10.305
27472SOL    HW184423   6.603   3.447  10.333
27472SOL    HW284424   6.680   3.392  10.215
27473SOL     OW84425   6.990   9.753   8.885
27473SOL    HW184426   7.045   9.828   8.863
27473SOL    HW284427   6.904   9.791   8.902
27474SOL     OW84428   2.290   6.866   0.680
27474SOL    HW184429   2.313   6.796   0.618
27474SOL    HW284430   2.201   6.890   0.656
27475SOL     OW84431   6.394   9.656   1.309
27475SOL    HW184432   6.344   9.698   1.239
27475SOL    HW284433   6.477   9.631   1.267
27476SOL     OW84434   4.223   8.228  10.166
27476SOL    HW184435   4.183   8.312  10.143
27476SOL    HW284436   4.296   8.251  10.224
27477SOL     OW84437   7.371   2.546   9.700
27477SOL    HW184438   7.427   2.541   9.622
27477SOL    HW284439   7.367   2.456   9.732
27478SOL     OW84440   3.394  10.736  10.623
27478SOL    HW184441   3.426  10.646  10.616
27478SOL    HW284442   3.471  10.790  10.605
27479SOL     OW84443   2.523   9.320   3.758
27479SOL    HW184444   2.460   9.248   3.750
27479SOL    HW284445   2.603   9.278   3.791
27480SOL     OW84446   7.282  10.065   2.285
27480SOL    HW184447   7.288  10.159   2.297
27480SOL    HW284448   7.299  10.029   2.372
27481SOL     OW84449   9.073   0.302  10.347
27481SOL    HW184450   9.107   0.239  10.283
27481SOL    HW284451   8.981   0.277  10.358
27482SOL     OW84452   7.631   5.127   4.101
27482SOL    HW184453   7.628   5.185   4.176
27482SOL    HW284454   7.717   5.086   4.105
27483SOL     OW84455   5.457   7.185   7.411
27483SOL    HW184456   5.475   7.235   7.331
27483SOL    HW284457   5.413   7.106   7.379
27484SOL     OW84458  10.914   6.705   0.280
27484SOL    HW184459  10.907   6.676   0.371
27484SOL    HW284460  10.981   6.648   0.242
27485SOL     OW84461   1.701   9.371   4.266
27485SOL    HW184462   1.754   9.299   4.229
27485SOL    HW284463   1.765   9.430   4.304
27486SOL     OW84464   9.810  10.471   0.716
27486SOL    HW184465   9.854  10.387   0.703
27486SOL    HW284466   9.850  10.529   0.651
27487SOL     OW84467   4.315   0.249   2.207
27487SOL    HW184468   4.285   0.253   2.298
27487SOL    HW284469   4.369   0.170   2.203
27488SOL     OW84470   7.977   7.733   1.060
27488SOL    HW184471   7.980   7.656   1.117
27488SOL    HW284472   7.893   7.775   1.080
27489SOL     OW84473   9.956  11.083   8.081
27489SOL    HW184474   9.899  11.112   8.010
27489SOL    HW284475   9.902  11.089   8.159
27490SOL     OW84476   6.323   6.832   7.821
27490SOL    HW184477   6.313   6.850   7.914
27490SOL    HW284478   6.269   6.898   7.777
27491SOL     OW84479   0.120  10.744   8.207
27491SOL    HW184480   0.100  10.653   8.228
27491SOL    HW284481   0.035  10.782   8.183
27492SOL     OW84482   7.974   6.220   6.733
27492SOL    HW184483   8.059   6.176   6.730
27492SOL    HW284484   7.961   6.252   6.644
27493SOL     OW84485   5.570   7.838   8.349
27493SOL    HW184486   5.627   7.764   8.326
27493SOL    HW284487   5.576   7.844   8.444
27494SOL     OW84488   7.659   7.173   9.938
27494SOL    HW184489   7.711   7.176  10.018
27494SOL    HW284490   7.655   7.080   9.915
27495SOL     OW84491   6.306   6.913   7.396
27495SOL    HW184492   6.269   6.946   7.477
27495SOL    HW284493   6.238   6.856   7.359
27496SOL     OW84494   3.750   7.945   7.905
27496SOL    HW184495   3.671   7.892   7.898
27496SOL    HW284496   3.794   7.932   7.820
27497SOL     OW84497   9.108   4.819   6.169
27497SOL    HW184498   9.179   4.844   6.228
27497SOL    HW284499   9.055   4.758   6.220
27498SOL     OW84500   9.144  11.034   8.426
27498SOL    HW184501   9.113  11.093   8.495
27498SOL    HW284502   9.138  11.086   8.345
27499SOL     OW84503   0.770   6.751   7.154
27499SOL    HW184504   0.795   6.658   7.162
27499SOL    HW284505   0.847   6.799   7.184
27500SOL     OW84506  10.480   1.886   0.248
27500SOL    HW184507  10.573   1.894   0.271
27500SOL    HW284508  10.460   1.965   0.198
27501SOL     OW84509   6.656   8.277   9.338
27501SOL    HW184510   6.598   8.235   9.274
27501SOL    HW284511   6.702   8.204   9.380
27502SOL     OW84512   8.693   9.422   7.487
27502SOL    HW184513   8.646   9.342   7.462
27502SOL    HW284514   8.638   9.462   7.554
27503SOL     OW84515   9.239   2.872   1.979
27503SOL    HW184516   9.249   2.864   1.884
27503SOL    HW284517   9.154   2.833   1.997
27504SOL     OW84518   4.242   6.759   9.809
27504SOL    HW184519   4.171   6.817   9.834
27504SOL    HW284520   4.198   6.684   9.768
27505SOL     OW84521   0.608   0.721  10.939
27505SOL    HW184522   0.626   0.658  11.009
27505SOL    HW284523   0.694   0.756  10.915
27506SOL     OW84524   8.662   1.017   8.677
27506SOL    HW184525   8.701   0.931   8.659
27506SOL    HW284526   8.572   1.009   8.646
27507SOL     OW84527   7.275   7.715   6.463
27507SOL    HW184528   7.193   7.670   6.482
27507SOL    HW284529   7.341   7.664   6.510
27508SOL     OW84530   3.772   6.551  10.397
27508SOL    HW184531   3.694   6.542  10.343
27508SOL    HW284532   3.841   6.506  10.347
27509SOL     OW84533   4.067   0.398   9.272
27509SOL    HW184534   4.131   0.437   9.331
27509SOL    HW284535   4.117   0.334   9.221
27510SOL     OW84536   0.756   4.414   5.861
27510SOL    HW184537   0.705   4.441   5.784
27510SOL    HW284538   0.732   4.322   5.874
27511SOL     OW84539   1.137   7.754  10.700
27511SOL    HW184540   1.134   7.837  10.747
27511SOL    HW284541   1.229   7.743  10.676
27512SOL     OW84542   4.514   8.359   7.105
27512SOL    HW184543   4.547   8.269   7.112
27512SOL    HW284544   4.588   8.409   7.071
27513SOL     OW84545  10.097   0.940   9.472
27513SOL    HW184546  10.114   1.024   9.431
27513SOL    HW284547  10.160   0.935   9.544
27514SOL     OW84548   3.116   8.876   0.373
27514SOL    HW184549   3.056   8.859   0.300
27514SOL    HW284550   3.111   8.796   0.426
27515SOL     OW84551   4.265   7.312  10.808
27515SOL    HW184552   4.299   7.229  10.841
27515SOL    HW284553   4.315   7.379  10.854
27516SOL     OW84554   7.887   8.029   6.663
27516SOL    HW184555   7.978   8.004   6.645
27516SOL    HW284556   7.855   7.960   6.722
27517SOL     OW84557   1.924   8.381   4.679
27517SOL    HW184558   2.015   8.385   4.709
27517SOL    HW284559   1.925   8.427   4.595
27518SOL     OW84560   7.352   9.983   1.485
27518SOL    HW184561   7.403  10.061   1.465
27518SOL    HW284562   7.300   9.967   1.406
27519SOL     OW84563  10.702  10.626  10.053
27519SOL    HW184564  10.724  10.550   9.998
27519SOL    HW284565  10.683  10.696   9.990
27520SOL     OW84566   2.327   8.963   8.277
27520SOL    HW184567   2.291   8.924   8.197
27520SOL    HW284568   2.405   8.911   8.296
27521SOL     OW84569   9.082   2.021  10.614
27521SOL    HW184570   9.042   2.074  10.545
27521SOL    HW284571   9.153   1.973  10.570
27522SOL     OW84572   8.352   8.064   9.319
27522SOL    HW184573   8.298   8.135   9.353
27522SOL    HW284574   8.300   7.984   9.333
27523SOL     OW84575   6.173   0.457  10.159
27523SOL    HW184576   6.140   0.404  10.086
27523SOL    HW284577   6.213   0.393  10.218
27524SOL     OW84578   7.646   6.458   6.636
27524SOL    HW184579   7.677   6.439   6.547
27524SOL    HW284580   7.592   6.382   6.658
27525SOL     OW84581   8.512   7.805   9.234
27525SOL    HW184582   8.418   7.808   9.251
27525SOL    HW284583   8.521   7.745   9.160
27526SOL     OW84584   7.812   0.273   5.531
27526SOL    HW184585   7.865   0.350   5.548
27526SOL    HW284586   7.793   0.237   5.617
27527SOL     OW84587   2.915   8.159   4.450
27527SOL    HW184588   2.901   8.238   4.398
27527SOL    HW284589   3.010   8.153   4.460
27528SOL     OW84590  10.549   9.906   1.771
27528SOL    HW184591  10.481   9.930   1.708
27528SOL    HW284592  10.621   9.966   1.753
27529SOL     OW84593   9.241   9.136   5.152
27529SOL    HW184594   9.307   9.091   5.205
27529SOL    HW284595   9.222   9.216   5.200
27530SOL     OW84596   8.588   8.457   7.971
27530SOL    HW184597   8.617   8.488   7.885
27530SOL    HW284598   8.666   8.461   8.026
27531SOL     OW84599   0.591   0.804   9.322
27531SOL    HW184600   0.613   0.836   9.409
27531SOL    HW284601   0.675   0.800   9.276
27532SOL     OW84602   1.400   7.317  10.851
27532SOL    HW184603   1.474   7.361  10.892
27532SOL    HW284604   1.440   7.266  10.780
27533SOL     OW84605   0.355   3.816   1.788
27533SOL    HW184606   0.449   3.820   1.802
27533SOL    HW284607   0.345   3.803   1.693
27534SOL     OW84608   6.233   9.367   5.585
27534SOL    HW184609   6.194   9.359   5.672
27534SOL    HW284610   6.193   9.296   5.534
27535SOL     OW84611   9.166   9.434   7.348
27535SOL    HW184612   9.078   9.458   7.377
27535SOL    HW284613   9.198   9.373   7.415
27536SOL     OW84614   2.881   8.582   5.471
27536SOL    HW184615   2.891   8.675   5.453
27536SOL    HW284616   2.948   8.562   5.536
27537SOL     OW84617   5.897   8.211   4.545
27537SOL    HW184618   5.885   8.198   4.639
27537SOL    HW284619   5.974   8.159   4.523
27538SOL     OW84620   2.815   9.110   9.197
27538SOL    HW184621   2.753   9.055   9.148
27538SOL    HW284622   2.791   9.200   9.174
27539SOL     OW84623   9.421   2.356   7.150
27539SOL    HW184624   9.421   2.399   7.064
27539SOL    HW284625   9.455   2.268   7.132
27540SOL     OW84626   3.835   5.638   5.240
27540SOL    HW184627   3.858   5.728   5.218
27540SOL    HW284628   3.919   5.596   5.260
27541SOL     OW84629  10.517   9.424   9.995
27541SOL    HW184630  10.586   9.469   9.946
27541SOL    HW284631  10.564   9.368  10.057
27542SOL     OW84632   9.288  10.875   1.529
27542SOL    HW184633   9.252  10.807   1.471
27542SOL    HW284634   9.377  10.846   1.548
27543SOL     OW84635   6.655   6.693   5.446
27543SOL    HW184636   6.670   6.609   5.489
27543SOL    HW284637   6.715   6.753   5.489
27544SOL     OW84638   3.997   2.666   1.885
27544SOL    HW184639   3.937   2.733   1.853
27544SOL    HW284640   4.082   2.691   1.849
27545SOL     OW84641   7.782   0.823  10.408
27545SOL    HW184642   7.863   0.862  10.440
27545SOL    HW284643   7.775   0.740  10.456
27546SOL     OW84644   9.231   9.179   8.061
27546SOL    HW184645   9.291   9.243   8.023
27546SOL    HW284646   9.287   9.104   8.084
27547SOL     OW84647   0.659  10.494  10.510
27547SOL    HW184648   0.723  10.450  10.565
27547SOL    HW284649   0.711  10.530  10.438
27548SOL     OW84650  11.093   6.214   7.673
27548SOL    HW184651  11.185   6.225   7.648
27548SOL    HW284652  11.055   6.301   7.666
27549SOL     OW84653   7.516   1.750   2.672
27549SOL    HW184654   7.482   1.818   2.614
27549SOL    HW284655   7.444   1.687   2.680
27550SOL     OW84656   8.382   8.745   6.517
27550SOL    HW184657   8.446   8.680   6.548
27550SOL    HW284658   8.301   8.723   6.563
27551SOL     OW84659   0.982   5.342   8.959
27551SOL    HW184660   0.980   5.307   8.869
27551SOL    HW284661   0.903   5.307   9.000
27552SOL     OW84662   1.061   9.188   0.509
27552SOL    HW184663   1.055   9.159   0.600
27552SOL    HW284664   0.998   9.259   0.502
27553SOL     OW84665   9.795   6.524   7.818
27553SOL    HW184666   9.717   6.487   7.776
27553SOL    HW284667   9.857   6.451   7.822
27554SOL     OW84668   1.199   4.124   6.730
27554SOL    HW184669   1.162   4.038   6.711
27554SOL    HW284670   1.269   4.135   6.665
27555SOL     OW84671   8.919   4.862   2.150
27555SOL    HW184672   8.898   4.938   2.096
27555SOL    HW284673   9.006   4.880   2.185
27556SOL     OW84674  10.680   4.059   4.678
27556SOL    HW184675  10.586   4.048   4.689
27556SOL    HW284676  10.716   3.971   4.691
27557SOL     OW84677   5.329   6.908   9.401
27557SOL    HW184678   5.399   6.879   9.459
27557SOL    HW284679   5.375   6.948   9.327
27558SOL     OW84680   8.233   8.832   1.413
27558SOL    HW184681   8.298   8.768   1.383
27558SOL    HW284682   8.232   8.822   1.508
27559SOL     OW84683   9.177   2.953   3.050
27559SOL    HW184684   9.142   2.872   3.087
27559SOL    HW284685   9.104   2.990   3.001
27560SOL     OW84686  10.076   7.733   8.964
27560SOL    HW184687  10.073   7.656   9.021
27560SOL    HW284688  10.167   7.738   8.935
27561SOL     OW84689   5.038   8.870  11.054
27561SOL    HW184690   5.062   8.902  10.967
27561SOL    HW284691   5.120   8.874  11.104
27562SOL     OW84692   8.892   0.642   9.163
27562SOL    HW184693   8.866   0.702   9.232
27562SOL    HW284694   8.909   0.698   9.087
27563SOL     OW84695  10.539   4.135   1.461
27563SOL    HW184696  10.629   4.155   1.488
27563SOL    HW284697  10.540   4.041   1.441
27564SOL     OW84698   7.106   9.800   5.630
27564SOL    HW184699   7.015   9.789   5.604
27564SOL    HW284700   7.107   9.879   5.684
27565SOL     OW84701   6.367   9.552   2.122
27565SOL    HW184702   6.399   9.627   2.072
27565SOL    HW284703   6.298   9.588   2.178
27566SOL     OW84704   4.646   0.177   9.007
27566SOL    HW184705   4.684   0.182   9.094
27566SOL    HW284706   4.715   0.208   8.949
27567SOL     OW84707  10.334   9.199   3.283
27567SOL    HW184708  10.322   9.200   3.188
27567SOL    HW284709  10.276   9.268   3.315
27568SOL     OW84710   6.603  10.281   7.010
27568SOL    HW184711   6.600  10.288   7.105
27568SOL    HW284712   6.548  10.205   6.990
27569SOL     OW84713   5.137  10.361   0.403
27569SOL    HW184714   5.173  10.433   0.352
27569SOL    HW284715   5.182  10.283   0.369
27570SOL     OW84716   6.453  10.074   0.103
27570SOL    HW184717   6.400  10.071   0.024
27570SOL    HW284718   6.502   9.991   0.103
27571SOL     OW84719   5.394   1.518   8.063
27571SOL    HW184720   5.481   1.500   8.026
27571SOL    HW284721   5.391   1.467   8.144
27572SOL     OW84722   2.094   4.855   8.216
27572SOL    HW184723   2.008   4.816   8.200
27572SOL    HW284724   2.156   4.787   8.188
27573SOL     OW84725   8.962   4.524   6.468
27573SOL    HW184726   8.949   4.461   6.539
27573SOL    HW284727   9.020   4.479   6.406
27574SOL     OW84728   1.143  10.092   8.671
27574SOL    HW184729   1.200  10.120   8.599
27574SOL    HW284730   1.131   9.998   8.657
27575SOL     OW84731   7.196   5.930  10.890
27575SOL    HW184732   7.221   5.914  10.981
27575SOL    HW284733   7.279   5.924  10.841
27576SOL     OW84734   2.230   7.785   4.134
27576SOL    HW184735   2.271   7.871   4.125
27576SOL    HW284736   2.235   7.766   4.227
27577SOL     OW84737   1.061  11.061   6.766
27577SOL    HW184738   1.095  11.011   6.840
27577SOL    HW284739   1.030  10.995   6.704
27578SOL     OW84740   3.850   4.418  10.785
27578SOL    HW184741   3.911   4.410  10.711
27578SOL    HW284742   3.907   4.420  10.862
27579SOL     OW84743   5.395   7.698   6.591
27579SOL    HW184744   5.316   7.722   6.542
27579SOL    HW284745   5.417   7.776   6.641
27580SOL     OW84746   5.152   9.369   7.416
27580SOL    HW184747   5.165   9.290   7.363
27580SOL    HW284748   5.059   9.390   7.405
27581SOL     OW84749   6.849   8.351   3.918
27581SOL    HW184750   6.934   8.354   3.961
27581SOL    HW284751   6.822   8.259   3.924
27582SOL     OW84752   1.296   5.399   8.138
27582SOL    HW184753   1.276   5.308   8.114
27582SOL    HW284754   1.269   5.406   8.229
27583SOL     OW84755   8.491   8.518   6.658
27583SOL    HW184756   8.541   8.443   6.626
27583SOL    HW284757   8.401   8.485   6.666
27584SOL     OW84758   3.791   1.928   7.168
27584SOL    HW184759   3.884   1.925   7.192
27584SOL    HW284760   3.760   1.838   7.180
27585SOL     OW84761   0.210   5.701   7.762
27585SOL    HW184762   0.262   5.673   7.687
27585SOL    HW284763   0.199   5.795   7.749
27586SOL     OW84764   5.916   4.596  10.801
27586SOL    HW184765   5.881   4.508  10.814
27586SOL    HW284766   6.005   4.582  10.767
27587SOL     OW84767   5.746   7.675   5.901
27587SOL    HW184768   5.769   7.628   5.820
27587SOL    HW284769   5.661   7.640   5.925
27588SOL     OW84770   6.571   1.787   6.918
27588SOL    HW184771   6.645   1.743   6.960
27588SOL    HW284772   6.582   1.879   6.940
27589SOL     OW84773   8.010   8.308   8.048
27589SOL    HW184774   8.090   8.333   8.002
27589SOL    HW284775   7.967   8.391   8.068
27590SOL     OW84776   5.834   9.420   1.175
27590SOL    HW184777   5.893   9.417   1.250
27590SOL    HW284778   5.888   9.393   1.101
27591SOL     OW84779   9.224   6.446   1.615
27591SOL    HW184780   9.150   6.499   1.644
27591SOL    HW284781   9.236   6.381   1.684
27592SOL     OW84782   5.704   0.912   8.095
27592SOL    HW184783   5.796   0.922   8.121
27592SOL    HW284784   5.680   0.997   8.059
27593SOL     OW84785   1.940   8.528   7.804
27593SOL    HW184786   1.974   8.596   7.861
27593SOL    HW284787   1.974   8.446   7.841
27594SOL     OW84788   7.739   8.006   9.245
27594SOL    HW184789   7.712   8.096   9.230
27594SOL    HW284790   7.720   7.961   9.162
27595SOL     OW84791   5.623   4.880   8.137
27595SOL    HW184792   5.543   4.918   8.101
27595SOL    HW284793   5.625   4.791   8.101
27596SOL     OW84794   8.389   9.968   9.737
27596SOL    HW184795   8.442  10.003   9.665
27596SOL    HW284796   8.306   9.944   9.695
27597SOL     OW84797   6.806   8.192   5.988
27597SOL    HW184798   6.732   8.133   5.975
27597SOL    HW284799   6.858   8.150   6.056
27598SOL     OW84800   2.865   1.664   6.563
27598SOL    HW184801   2.955   1.630   6.563
27598SOL    HW284802   2.850   1.690   6.472
27599SOL     OW84803   5.435   0.293   7.840
27599SOL    HW184804   5.519   0.329   7.811
27599SOL    HW284805   5.450   0.267   7.931
27600SOL     OW84806   6.156   8.206   7.632
27600SOL    HW184807   6.101   8.147   7.580
27600SOL    HW284808   6.153   8.289   7.585
27601SOL     OW84809   6.602   0.808   4.031
27601SOL    HW184810   6.568   0.766   4.110
27601SOL    HW284811   6.671   0.749   4.000
27602SOL     OW84812   7.361  11.083   7.620
27602SOL    HW184813   7.269  11.067   7.599
27602SOL    HW284814   7.361  11.168   7.664
27603SOL     OW84815   7.152   6.531   5.654
27603SOL    HW184816   7.084   6.510   5.590
27603SOL    HW284817   7.193   6.610   5.619
27604SOL     OW84818   5.891   6.615   5.120
27604SOL    HW184819   5.852   6.679   5.179
27604SOL    HW284820   5.867   6.530   5.158
27605SOL     OW84821   0.405   3.436   0.606
27605SOL    HW184822   0.488   3.388   0.603
27605SOL    HW284823   0.354   3.391   0.674
27606SOL     OW84824   9.108   1.191   9.143
27606SOL    HW184825   9.172   1.128   9.109
27606SOL    HW284826   9.139   1.276   9.112
27607SOL     OW84827   7.673   1.545   1.596
27607SOL    HW184828   7.614   1.480   1.635
27607SOL    HW284829   7.658   1.537   1.501
27608SOL     OW84830   7.231   6.591   0.120
27608SOL    HW184831   7.137   6.606   0.133
27608SOL    HW284832   7.273   6.638   0.192
27609SOL     OW84833   7.563   4.071  10.751
27609SOL    HW184834   7.648   4.067  10.794
27609SOL    HW284835   7.514   3.997  10.788
27610SOL     OW84836  10.406   6.984   9.999
27610SOL    HW184837  10.439   7.072  10.017
27610SOL    HW284838  10.481   6.926  10.017
27611SOL     OW84839   6.945  10.255   0.099
27611SOL    HW184840   6.882  10.257   0.171
27611SOL    HW284841   6.977  10.345   0.092
27612SOL     OW84842   4.198  10.786   9.126
27612SOL    HW184843   4.140  10.732   9.180
27612SOL    HW284844   4.181  10.876   9.155
27613SOL     OW84845   6.287   5.072   9.675
27613SOL    HW184846   6.309   5.095   9.765
27613SOL    HW284847   6.371   5.070   9.629
27614SOL     OW84848   4.790  10.567  10.021
27614SOL    HW184849   4.784  10.661  10.036
27614SOL    HW284850   4.867  10.539  10.071
27615SOL     OW84851   5.213   9.381   9.890
27615SOL    HW184852   5.288   9.433   9.917
27615SOL    HW284853   5.199   9.405   9.798
27616SOL     OW84854   9.474   2.186   9.921
27616SOL    HW184855   9.457   2.145   9.836
27616SOL    HW284856   9.546   2.135   9.958
27617SOL     OW84857  10.767   7.965   4.128
27617SOL    HW184858  10.740   7.972   4.036
27617SOL    HW284859  10.822   7.887   4.131
27618SOL     OW84860   5.709   7.617   3.980
27618SOL    HW184861   5.697   7.526   3.953
27618SOL    HW284862   5.785   7.615   4.038
27619SOL     OW84863   6.612   5.635   5.902
27619SOL    HW184864   6.586   5.593   5.984
27619SOL    HW284865   6.531   5.640   5.850
27620SOL     OW84866   1.596   5.653   6.171
27620SOL    HW184867   1.591   5.707   6.250
27620SOL    HW284868   1.531   5.584   6.184
27621SOL     OW84869  10.161   0.246  10.405
27621SOL    HW184870  10.101   0.173  10.386
27621SOL    HW284871  10.231   0.206  10.456
27622SOL     OW84872   3.080  10.322   3.764
27622SOL    HW184873   3.170  10.289   3.754
27622SOL    HW284874   3.031  10.275   3.696
27623SOL     OW84875   5.837   6.478   6.573
27623SOL    HW184876   5.834   6.545   6.505
27623SOL    HW284877   5.760   6.494   6.627
27624SOL     OW84878   7.260   8.852   9.165
27624SOL    HW184879   7.290   8.932   9.122
27624SOL    HW284880   7.299   8.781   9.113
27625SOL     OW84881   8.544   3.616   6.437
27625SOL    HW184882   8.586   3.670   6.370
27625SOL    HW284883   8.510   3.540   6.389
27626SOL     OW84884   9.331  10.474   5.103
27626SOL    HW184885   9.335  10.379   5.111
27626SOL    HW284886   9.422  10.501   5.090
27627SOL     OW84887   9.386   0.737   3.006
27627SOL    HW184888   9.368   0.649   2.971
27627SOL    HW284889   9.429   0.783   2.934
27628SOL     OW84890   1.484   4.781   8.018
27628SOL    HW184891   1.556   4.824   7.971
27628SOL    HW284892   1.527   4.713   8.070
27629SOL     OW84893   2.111   0.391   5.332
27629SOL    HW184894   2.080   0.481   5.325
27629SOL    HW284895   2.032   0.338   5.344
27630SOL     OW84896  11.054   7.776   5.728
27630SOL    HW184897  11.109   7.702   5.700
27630SOL    HW284898  11.098   7.811   5.805
27631SOL     OW84899   8.970  10.122   5.514
27631SOL    HW184900   8.965  10.167   5.429
27631SOL    HW284901   8.950  10.189   5.578
27632SOL     OW84902   5.198   0.091   9.990
27632SOL    HW184903   5.122   0.073  10.045
27632SOL    HW284904   5.259   0.020  10.009
27633SOL     OW84905   2.635   3.272   2.934
27633SOL    HW184906   2.660   3.328   3.007
27633SOL    HW284907   2.687   3.192   2.946
27634SOL     OW84908   9.924   0.730   8.257
27634SOL    HW184909   9.972   0.704   8.335
27634SOL    HW284910   9.836   0.694   8.269
27635SOL     OW84911   7.188   8.701   5.897
27635SOL    HW184912   7.231   8.762   5.957
27635SOL    HW284913   7.140   8.757   5.836
27636SOL     OW84914  10.595   9.631   9.082
27636SOL    HW184915  10.664   9.615   9.147
27636SOL    HW284916  10.640   9.626   8.997
27637SOL     OW84917   2.246   9.500   3.879
27637SOL    HW184918   2.290   9.499   3.793
27637SOL    HW284919   2.311   9.463   3.939
27638SOL     OW84920   9.402   1.315  10.380
27638SOL    HW184921   9.392   1.382  10.312
27638SOL    HW284922   9.359   1.238  10.343
27639SOL     OW84923   2.892   5.923   8.739
27639SOL    HW184924   2.892   5.888   8.828
27639SOL    HW284925   2.935   6.008   8.746
27640SOL     OW84926   2.994   9.202   6.762
27640SOL    HW184927   2.944   9.130   6.801
27640SOL    HW284928   3.017   9.170   6.674
27641SOL     OW84929   6.836   6.234   3.547
27641SOL    HW184930   6.834   6.266   3.637
27641SOL    HW284931   6.922   6.192   3.538
27642SOL     OW84932   1.736   8.763  10.322
27642SOL    HW184933   1.672   8.802  10.262
27642SOL    HW284934   1.819   8.804  10.298
27643SOL     OW84935   9.419   6.803   5.028
27643SOL    HW184936   9.428   6.886   4.981
27643SOL    HW284937   9.448   6.737   4.965
27644SOL     OW84938   9.147   7.897   7.537
27644SOL    HW184939   9.152   7.805   7.565
27644SOL    HW284940   9.054   7.919   7.543
27645SOL     OW84941   8.649   7.687   6.868
27645SOL    HW184942   8.563   7.703   6.906
27645SOL    HW284943   8.697   7.768   6.882
27646SOL     OW84944  10.969  10.388   9.693
27646SOL    HW184945  10.888  10.342   9.715
27646SOL    HW284946  10.951  10.480   9.712
27647SOL     OW84947   9.354  10.721   3.441
27647SOL    HW184948   9.282  10.660   3.457
27647SOL    HW284949   9.410  10.712   3.518
27648SOL     OW84950   8.747   9.002   6.286
27648SOL    HW184951   8.794   8.969   6.209
27648SOL    HW284952   8.784   9.089   6.301
27649SOL     OW84953  10.686   8.353   1.092
27649SOL    HW184954  10.608   8.393   1.131
27649SOL    HW284955  10.682   8.378   0.999
27650SOL     OW84956   0.760   0.860   3.881
27650SOL    HW184957   0.801   0.846   3.966
27650SOL    HW284958   0.777   0.952   3.860
27651SOL     OW84959   7.044   5.019   3.965
27651SOL    HW184960   7.040   5.023   4.060
27651SOL    HW284961   7.101   4.944   3.946
27652SOL     OW84962  10.916   7.341   0.570
27652SOL    HW184963  10.952   7.409   0.514
27652SOL    HW284964  10.917   7.378   0.658
27653SOL     OW84965   8.635   9.985   6.442
27653SOL    HW184966   8.619  10.003   6.534
27653SOL    HW284967   8.641   9.889   6.437
27654SOL     OW84968   1.114   3.410   4.261
27654SOL    HW184969   1.150   3.381   4.345
27654SOL    HW284970   1.174   3.373   4.195
27655SOL     OW84971   5.830   7.031  10.373
27655SOL    HW184972   5.799   6.967  10.437
27655SOL    HW284973   5.886   7.090  10.422
27656SOL     OW84974   5.191   9.326   8.096
27656SOL    HW184975   5.211   9.409   8.053
27656SOL    HW284976   5.097   9.314   8.082
27657SOL     OW84977  10.634   8.626   8.336
27657SOL    HW184978  10.634   8.713   8.374
27657SOL    HW284979  10.661   8.639   8.245
27658SOL     OW84980   5.544   0.664   4.798
27658SOL    HW184981   5.513   0.695   4.713
27658SOL    HW284982   5.639   0.671   4.793
27659SOL     OW84983   4.948   9.041   6.594
27659SOL    HW184984   4.964   9.055   6.687
27659SOL    HW284985   4.921   8.949   6.588
27660SOL     OW84986   8.609   6.215  10.224
27660SOL    HW184987   8.624   6.294  10.275
27660SOL    HW284988   8.515   6.216  10.206
27661SOL     OW84989   9.941   7.247   8.006
27661SOL    HW184990   9.896   7.169   7.972
27661SOL    HW284991  10.034   7.228   7.992
27662SOL     OW84992   7.640   1.016   7.821
27662SOL    HW184993   7.610   0.926   7.836
27662SOL    HW284994   7.699   1.009   7.746
27663SOL     OW84995   4.621   5.315   4.334
27663SOL    HW184996   4.575   5.339   4.253
27663SOL    HW284997   4.565   5.348   4.404
27664SOL     OW84998   9.799   1.722   7.589
27664SOL    HW184999   9.731   1.673   7.634
27664SOL    HW285000   9.857   1.753   7.658
27665SOL     OW85001   4.684  10.194   8.617
27665SOL    HW185002   4.686  10.140   8.696
27665SOL    HW285003   4.730  10.274   8.641
27666SOL     OW85004   2.756   8.834   5.645
27666SOL    HW185005   2.797   8.852   5.729
27666SOL    HW285006   2.755   8.738   5.639
27667SOL     OW85007   5.699  10.997  10.772
27667SOL    HW185008   5.792  11.016  10.758
27667SOL    HW285009   5.656  11.082  10.762
27668SOL     OW85010   5.641   2.699   9.221
27668SOL    HW185011   5.641   2.741   9.135
27668SOL    HW285012   5.618   2.608   9.202
27669SOL     OW85013   3.199   8.060   1.122
27669SOL    HW185014   3.111   8.066   1.086
27669SOL    HW285015   3.215   7.966   1.130
27670SOL     OW85016   6.175   0.972   9.457
27670SOL    HW185017   6.153   0.902   9.519
27670SOL    HW285018   6.175   1.052   9.509
27671SOL     OW85019   6.044   6.095   8.979
27671SOL    HW185020   6.025   6.168   8.920
27671SOL    HW285021   6.013   6.017   8.932
27672SOL     OW85022   1.178   4.596   7.107
27672SOL    HW185023   1.235   4.671   7.093
27672SOL    HW285024   1.153   4.601   7.199
27673SOL     OW85025   9.311   6.152   8.129
27673SOL    HW185026   9.266   6.211   8.068
27673SOL    HW285027   9.293   6.188   8.216
27674SOL     OW85028  10.921   8.038   7.683
27674SOL    HW185029  10.845   8.089   7.657
27674SOL    HW285030  10.979   8.101   7.725
27675SOL     OW85031   7.330   6.661   9.401
27675SOL    HW185032   7.259   6.715   9.436
27675SOL    HW285033   7.396   6.661   9.470
27676SOL     OW85034   5.588   5.920   9.544
27676SOL    HW185035   5.554   5.970   9.618
27676SOL    HW285036   5.511   5.899   9.491
27677SOL     OW85037  11.032   8.235   6.480
27677SOL    HW185038  11.024   8.313   6.535
27677SOL    HW285039  10.959   8.241   6.418
27678SOL     OW85040   4.602   7.824   0.989
27678SOL    HW185041   4.593   7.854   1.079
27678SOL    HW285042   4.564   7.894   0.936
27679SOL     OW85043   2.370   0.525   1.662
27679SOL    HW185044   2.283   0.524   1.702
27679SOL    HW285045   2.366   0.596   1.598
27680SOL     OW85046   3.797  10.715   1.880
27680SOL    HW185047   3.794  10.809   1.896
27680SOL    HW285048   3.712  10.682   1.910
27681SOL     OW85049   4.110   5.957   9.743
27681SOL    HW185050   4.038   5.971   9.682
27681SOL    HW285051   4.106   6.031   9.803
27682SOL     OW85052   9.375   9.981  10.497
27682SOL    HW185053   9.461   9.947  10.522
27682SOL    HW285054   9.313   9.925  10.543
27683SOL     OW85055   0.367  10.025   2.502
27683SOL    HW185056   0.441  10.056   2.449
27683SOL    HW285057   0.305   9.990   2.438
27684SOL     OW85058   9.706   5.830   7.333
27684SOL    HW185059   9.691   5.771   7.259
27684SOL    HW285060   9.620   5.839   7.374
27685SOL     OW85061   5.751   0.123   1.011
27685SOL    HW185062   5.696   0.171   1.072
27685SOL    HW285063   5.767   0.039   1.053
27686SOL     OW85064   1.756   1.289  10.835
27686SOL    HW185065   1.675   1.273  10.883
27686SOL    HW285066   1.738   1.256  10.747
27687SOL     OW85067   8.106  10.750   9.441
27687SOL    HW185068   8.094  10.685   9.372
27687SOL    HW285069   8.025  10.800   9.441
27688SOL     OW85070   6.681   0.316   6.492
27688SOL    HW185071   6.613   0.308   6.425
27688SOL    HW285072   6.762   0.333   6.443
27689SOL     OW85073   6.149   6.613   0.725
27689SOL    HW185074   6.074   6.654   0.682
27689SOL    HW285075   6.117   6.591   0.812
27690SOL     OW85076   6.893   5.962   8.449
27690SOL    HW185077   6.899   5.869   8.472
27690SOL    HW285078   6.978   5.998   8.473
27691SOL     OW85079   7.492   7.533   1.990
27691SOL    HW185080   7.574   7.571   2.021
27691SOL    HW285081   7.506   7.438   1.997
27692SOL     OW85082   7.697   9.533   7.437
27692SOL    HW185083   7.662   9.548   7.349
27692SOL    HW285084   7.764   9.466   7.425
27693SOL     OW85085   3.974   4.578  10.289
27693SOL    HW185086   3.991   4.671  10.301
27693SOL    HW285087   4.032   4.534  10.351
27694SOL     OW85088   6.930   6.743  10.228
27694SOL    HW185089   6.891   6.784  10.305
27694SOL    HW285090   6.880   6.777  10.154
27695SOL     OW85091   6.260   5.824  11.072
27695SOL    HW185092   6.211   5.775  11.138
27695SOL    HW285093   6.246   5.916  11.095
27696SOL     OW85094   0.558  10.579   3.679
27696SOL    HW185095   0.640  10.554   3.722
27696SOL    HW285096   0.579  10.662   3.636
27697SOL     OW85097   1.516   5.321   7.873
27697SOL    HW185098   1.434   5.303   7.826
27697SOL    HW285099   1.565   5.380   7.815
27698SOL     OW85100  10.282   4.169   4.996
27698SOL    HW185101  10.301   4.104   5.064
27698SOL    HW285102  10.359   4.226   4.996
27699SOL     OW85103   8.837   1.711   3.324
27699SOL    HW185104   8.874   1.636   3.371
27699SOL    HW285105   8.781   1.754   3.388
27700SOL     OW85106   9.118   7.216   4.157
27700SOL    HW185107   9.208   7.227   4.189
27700SOL    HW285108   9.072   7.173   4.229
27701SOL     OW85109   4.651   1.091   0.826
27701SOL    HW185110   4.643   1.110   0.919
27701SOL    HW285111   4.666   1.176   0.784
27702SOL     OW85112   0.389   7.340   2.641
27702SOL    HW185113   0.351   7.423   2.667
27702SOL    HW285114   0.461   7.325   2.702
27703SOL     OW85115   0.171   9.286   2.164
27703SOL    HW185116   0.229   9.239   2.223
27703SOL    HW285117   0.146   9.364   2.212
27704SOL     OW85118   8.189   8.632   4.468
27704SOL    HW185119   8.109   8.683   4.476
27704SOL    HW285120   8.187   8.573   4.543
27705SOL     OW85121   7.674   4.037   7.714
27705SOL    HW185122   7.604   4.081   7.761
27705SOL    HW285123   7.692   4.093   7.639
27706SOL     OW85124   0.583   6.894   6.946
27706SOL    HW185125   0.549   6.978   6.974
27706SOL    HW285126   0.655   6.876   7.006
27707SOL     OW85127   6.514   2.723   1.751
27707SOL    HW185128   6.589   2.714   1.691
27707SOL    HW285129   6.502   2.817   1.761
27708SOL     OW85130   1.553   2.861   8.028
27708SOL    HW185131   1.532   2.940   7.979
27708SOL    HW285132   1.644   2.842   8.004
27709SOL     OW85133   7.121   2.228   0.337
27709SOL    HW185134   7.159   2.194   0.256
27709SOL    HW285135   7.124   2.323   0.327
27710SOL     OW85136   5.545   6.117   1.902
27710SOL    HW185137   5.549   6.204   1.862
27710SOL    HW285138   5.620   6.114   1.961
27711SOL     OW85139   7.101   4.434   2.840
27711SOL    HW185140   7.052   4.352   2.850
27711SOL    HW285141   7.154   4.440   2.919
27712SOL     OW85142   4.745   7.616   3.806
27712SOL    HW185143   4.656   7.635   3.775
27712SOL    HW285144   4.802   7.650   3.737
27713SOL     OW85145   9.993   0.242   1.188
27713SOL    HW185146   9.959   0.194   1.112
27713SOL    HW285147  10.038   0.175   1.240
27714SOL     OW85148   6.883   7.365   6.413
27714SOL    HW185149   6.876   7.269   6.407
27714SOL    HW285150   6.893   7.383   6.506
27715SOL     OW85151   4.762   4.702   9.361
27715SOL    HW185152   4.739   4.616   9.397
27715SOL    HW285153   4.826   4.737   9.423
27716SOL     OW85154   7.936   7.307   6.256
27716SOL    HW185155   8.030   7.316   6.239
27716SOL    HW285156   7.894   7.348   6.180
27717SOL     OW85157   1.270   8.664   4.988
27717SOL    HW185158   1.342   8.617   4.946
27717SOL    HW285159   1.223   8.596   5.036
27718SOL     OW85160   4.776   6.518   6.338
27718SOL    HW185161   4.707   6.456   6.361
27718SOL    HW285162   4.855   6.483   6.380
27719SOL     OW85163   3.358   4.255   4.812
27719SOL    HW185164   3.274   4.257   4.857
27719SOL    HW285165   3.398   4.340   4.831
27720SOL     OW85166   2.282   7.204   9.877
27720SOL    HW185167   2.328   7.202   9.961
27720SOL    HW285168   2.207   7.261   9.892
27721SOL     OW85169   8.910   4.018  10.602
27721SOL    HW185170   8.949   4.025  10.689
27721SOL    HW285171   8.924   3.926  10.576
27722SOL     OW85172  10.686   8.733   0.555
27722SOL    HW185173  10.748   8.710   0.624
27722SOL    HW285174  10.660   8.648   0.518
27723SOL     OW85175   9.388   2.453   9.159
27723SOL    HW185176   9.390   2.361   9.132
27723SOL    HW285177   9.462   2.493   9.112
27724SOL     OW85178   7.453   7.119   2.449
27724SOL    HW185179   7.521   7.052   2.440
27724SOL    HW285180   7.377   7.071   2.481
27725SOL     OW85181   3.550   3.675   4.692
27725SOL    HW185182   3.604   3.605   4.730
27725SOL    HW285183   3.553   3.659   4.597
27726SOL     OW85184   6.697   0.256   6.095
27726SOL    HW185185   6.659   0.308   6.024
27726SOL    HW285186   6.730   0.320   6.157
27727SOL     OW85187  10.110  10.001  10.912
27727SOL    HW185188  10.202  10.029  10.912
27727SOL    HW285189  10.090   9.985  11.004
27728SOL     OW85190   0.156   7.898   8.937
27728SOL    HW185191   0.217   7.888   8.863
27728SOL    HW285192   0.121   7.987   8.928
27729SOL     OW85193   8.330   8.828   7.129
27729SOL    HW185194   8.416   8.804   7.165
27729SOL    HW285195   8.274   8.753   7.149
27730SOL     OW85196   2.250   6.597  10.281
27730SOL    HW185197   2.223   6.568  10.194
27730SOL    HW285198   2.342   6.570  10.287
27731SOL     OW85199   0.217  10.612   7.100
27731SOL    HW185200   0.254  10.670   7.033
27731SOL    HW285201   0.131  10.650   7.118
27732SOL     OW85202   4.162   6.765   7.845
27732SOL    HW185203   4.187   6.774   7.753
27732SOL    HW285204   4.104   6.689   7.846
27733SOL     OW85205   7.276   8.905   1.172
27733SOL    HW185206   7.209   8.973   1.179
27733SOL    HW285207   7.293   8.879   1.262
27734SOL     OW85208   0.336   7.196   7.429
27734SOL    HW185209   0.256   7.219   7.477
27734SOL    HW285210   0.407   7.230   7.483
27735SOL     OW85211   2.429   9.369   5.936
27735SOL    HW185212   2.469   9.418   5.864
27735SOL    HW285213   2.346   9.337   5.900
27736SOL     OW85214   6.012  10.342   2.912
27736SOL    HW185215   6.003  10.334   2.817
27736SOL    HW285216   6.095  10.388   2.924
27737SOL     OW85217   9.467   7.305   0.963
27737SOL    HW185218   9.454   7.212   0.941
27737SOL    HW285219   9.533   7.304   1.032
27738SOL     OW85220   8.717   0.303   4.096
27738SOL    HW185221   8.764   0.312   4.178
27738SOL    HW285222   8.746   0.218   4.061
27739SOL     OW85223   2.100   7.635   8.090
27739SOL    HW185224   2.127   7.665   8.177
27739SOL    HW285225   2.133   7.545   8.084
27740SOL     OW85226   7.596   2.777   3.711
27740SOL    HW185227   7.681   2.777   3.754
27740SOL    HW285228   7.614   2.809   3.622
27741SOL     OW85229   1.793   9.370   8.547
27741SOL    HW185230   1.840   9.314   8.609
27741SOL    HW285231   1.702   9.339   8.551
27742SOL     OW85232   5.967   8.490   1.025
27742SOL    HW185233   5.879   8.525   1.017
27742SOL    HW285234   5.996   8.478   0.934
27743SOL     OW85235   5.894   7.791   9.483
27743SOL    HW185236   5.833   7.857   9.514
27743SOL    HW285237   5.892   7.723   9.550
27744SOL     OW85238   7.128   2.168   8.968
27744SOL    HW185239   7.190   2.201   8.902
27744SOL    HW285240   7.092   2.088   8.929
27745SOL     OW85241   8.749   2.084   0.503
27745SOL    HW185242   8.654   2.077   0.497
27745SOL    HW285243   8.765   2.136   0.581
27746SOL     OW85244   7.507   7.661   0.386
27746SOL    HW185245   7.448   7.715   0.333
27746SOL    HW285246   7.451   7.623   0.453
27747SOL     OW85247   3.458   9.767   8.706
27747SOL    HW185248   3.367   9.792   8.690
27747SOL    HW285249   3.492   9.746   8.619
27748SOL     OW85250   6.468   7.508  10.157
27748SOL    HW185251   6.403   7.486  10.224
27748SOL    HW285252   6.456   7.601  10.142
27749SOL     OW85253   5.744   1.588  10.956
27749SOL    HW185254   5.753   1.669  10.906
27749SOL    HW285255   5.653   1.587  10.985
27750SOL     OW85256   0.974   2.414   5.562
27750SOL    HW185257   1.045   2.366   5.518
27750SOL    HW285258   0.944   2.477   5.496
27751SOL     OW85259   8.839   6.871   2.782
27751SOL    HW185260   8.802   6.794   2.738
27751SOL    HW285261   8.874   6.837   2.864
27752SOL     OW85262   7.873   9.445   9.407
27752SOL    HW185263   7.814   9.407   9.472
27752SOL    HW285264   7.909   9.369   9.361
27753SOL     OW85265   9.224  10.971  10.634
27753SOL    HW185266   9.209  10.997  10.543
27753SOL    HW285267   9.162  11.022  10.685
27754SOL     OW85268   4.195   0.583   0.069
27754SOL    HW185269   4.121   0.641   0.055
27754SOL    HW285270   4.228   0.606   0.156
27755SOL     OW85271   1.554   7.798  10.957
27755SOL    HW185272   1.567   7.703  10.966
27755SOL    HW285273   1.516   7.808  10.869
27756SOL     OW85274   9.192   9.023   8.392
27756SOL    HW185275   9.151   8.936   8.395
27756SOL    HW285276   9.171   9.056   8.304
27757SOL     OW85277   4.744   0.050   6.782
27757SOL    HW185278   4.649   0.052   6.790
27757SOL    HW285279   4.767   0.136   6.748
27758SOL     OW85280   5.348   0.615  10.923
27758SOL    HW185281   5.328   0.708  10.921
27758SOL    HW285282   5.362   0.594  11.015
27759SOL     OW85283   6.072   0.870   6.874
27759SOL    HW185284   5.989   0.824   6.862
27759SOL    HW285285   6.130   0.832   6.808
27760SOL     OW85286   4.455   7.636   8.129
27760SOL    HW185287   4.548   7.616   8.142
27760SOL    HW285288   4.417   7.553   8.101
27761SOL     OW85289   7.178  10.247  10.908
27761SOL    HW185290   7.212  10.305  10.975
27761SOL    HW285291   7.252  10.191  10.885
27762SOL     OW85292   1.600   9.968   0.473
27762SOL    HW185293   1.517   9.998   0.509
27762SOL    HW285294   1.584   9.876   0.449
27763SOL     OW85295   1.870   6.041   8.678
27763SOL    HW185296   1.843   6.013   8.590
27763SOL    HW285297   1.810   5.995   8.737
27764SOL     OW85298   7.319   2.159   0.153
27764SOL    HW185299   7.389   2.165   0.218
27764SOL    HW285300   7.336   2.231   0.093
27765SOL     OW85301   0.399   8.489  10.706
27765SOL    HW185302   0.355   8.573  10.718
27765SOL    HW285303   0.491   8.511  10.694
27766SOL     OW85304   1.604  10.464   8.460
27766SOL    HW185305   1.549  10.454   8.537
27766SOL    HW285306   1.573  10.545   8.419
27767SOL     OW85307   4.679   2.201   5.844
27767SOL    HW185308   4.589   2.192   5.873
27767SOL    HW285309   4.713   2.276   5.893
27768SOL     OW85310   8.162   4.640   4.247
27768SOL    HW185311   8.186   4.547   4.256
27768SOL    HW285312   8.227   4.687   4.299
27769SOL     OW85313   6.602  11.029   2.455
27769SOL    HW185314   6.615  10.936   2.437
27769SOL    HW285315   6.526  11.053   2.402
27770SOL     OW85316   1.412   4.969   9.875
27770SOL    HW185317   1.398   5.063   9.867
27770SOL    HW285318   1.480   4.960   9.942
27771SOL     OW85319   4.312  11.103   4.484
27771SOL    HW185320   4.235  11.064   4.443
27771SOL    HW285321   4.298  11.090   4.578
27772SOL     OW85322   1.755   3.222   0.633
27772SOL    HW185323   1.673   3.270   0.641
27772SOL    HW285324   1.759   3.197   0.540
27773SOL     OW85325   4.960   0.584   2.012
27773SOL    HW185326   4.899   0.538   1.954
27773SOL    HW285327   5.046   0.551   1.986
27774SOL     OW85328   0.835   9.622   8.892
27774SOL    HW185329   0.880   9.553   8.941
27774SOL    HW285330   0.743   9.610   8.914
27775SOL     OW85331   9.770   3.056  10.884
27775SOL    HW185332   9.814   3.122  10.937
27775SOL    HW285333   9.787   2.973  10.929
27776SOL     OW85334   8.589   0.028   8.694
27776SOL    HW185335   8.601  -0.008   8.782
27776SOL    HW285336   8.639  -0.031   8.637
27777SOL     OW85337  11.037   9.169   7.615
27777SOL    HW185338  11.053   9.221   7.694
27777SOL    HW285339  10.942   9.159   7.612
27778SOL     OW85340   6.897   8.268   0.471
27778SOL    HW185341   6.975   8.315   0.441
27778SOL    HW285342   6.894   8.189   0.417
27779SOL     OW85343  10.300   0.201  11.097
27779SOL    HW185344  10.285   0.130  11.033
27779SOL    HW285345  10.395   0.215  11.094
27780SOL     OW85346   9.634  10.817   2.300
27780SOL    HW185347   9.609  10.907   2.280
27780SOL    HW285348   9.642  10.775   2.214
27781SOL     OW85349  10.617   8.429   7.490
27781SOL    HW185350  10.583   8.516   7.510
27781SOL    HW285351  10.707   8.430   7.523
27782SOL     OW85352   8.016  10.042   7.779
27782SOL    HW185353   8.002   9.977   7.710
27782SOL    HW285354   7.937  10.096   7.778
27783SOL     OW85355   2.063   1.558   1.285
27783SOL    HW185356   1.994   1.495   1.266
27783SOL    HW285357   2.019   1.630   1.330
27784SOL     OW85358   6.261  10.531  10.311
27784SOL    HW185359   6.334  10.490  10.264
27784SOL    HW285360   6.207  10.569  10.241
27785SOL     OW85361   1.371   4.458   9.148
27785SOL    HW185362   1.354   4.533   9.205
27785SOL    HW285363   1.295   4.401   9.159
27786SOL     OW85364   1.289   5.166   4.008
27786SOL    HW185365   1.247   5.200   3.929
27786SOL    HW285366   1.278   5.071   4.002
27787SOL     OW85367   2.412   0.891   4.344
27787SOL    HW185368   2.357   0.960   4.381
27787SOL    HW285369   2.497   0.903   4.386
27788SOL     OW85370   1.179   4.222   9.014
27788SOL    HW185371   1.165   4.128   9.026
27788SOL    HW285372   1.167   4.259   9.101
27789SOL     OW85373   7.487   8.266   6.078
27789SOL    HW185374   7.534   8.314   6.010
27789SOL    HW285375   7.403   8.310   6.085
27790SOL     OW85376   1.876   0.245   2.368
27790SOL    HW185377   1.955   0.219   2.415
27790SOL    HW285378   1.905   0.313   2.307
27791SOL     OW85379  10.408   0.671  10.187
27791SOL    HW185380  10.437   0.580  10.184
27791SOL    HW285381  10.414   0.700  10.096
27792SOL     OW85382   6.792   2.236  10.866
27792SOL    HW185383   6.716   2.187  10.897
27792SOL    HW285384   6.755   2.310  10.818
27793SOL     OW85385   7.961   1.418   9.983
27793SOL    HW185386   7.968   1.465   9.900
27793SOL    HW285387   7.870   1.390   9.987
27794SOL     OW85388   4.944   8.735   8.884
27794SOL    HW185389   4.980   8.678   8.952
27794SOL    HW285390   4.853   8.747   8.909
27795SOL     OW85391   3.271   0.495   7.410
27795SOL    HW185392   3.240   0.460   7.326
27795SOL    HW285393   3.221   0.576   7.422
27796SOL     OW85394   4.877  10.031   9.970
27796SOL    HW185395   4.943   9.965   9.993
27796SOL    HW285396   4.806   9.981   9.929
27797SOL     OW85397   5.243   5.682   4.541
27797SOL    HW185398   5.243   5.777   4.541
27797SOL    HW285399   5.279   5.658   4.626
27798SOL     OW85400   9.110   6.837   9.415
27798SOL    HW185401   9.048   6.894   9.461
27798SOL    HW285402   9.182   6.895   9.390
27799SOL     OW85403   0.868   5.498   6.536
27799SOL    HW185404   0.849   5.515   6.443
27799SOL    HW285405   0.963   5.505   6.542
27800SOL     OW85406   5.614   3.268   7.178
27800SOL    HW185407   5.535   3.220   7.201
27800SOL    HW285408   5.583   3.354   7.151
27801SOL     OW85409   9.044   9.092  10.665
27801SOL    HW185410   9.118   9.152  10.657
27801SOL    HW285411   8.976   9.143  10.708
27802SOL     OW85412   5.681  10.416   7.341
27802SOL    HW185413   5.689  10.399   7.247
27802SOL    HW285414   5.757  10.471   7.362
27803SOL     OW85415   1.038   8.736   9.903
27803SOL    HW185416   0.966   8.784   9.943
27803SOL    HW285417   1.005   8.709   9.817
27804SOL     OW85418   5.113   3.900  11.097
27804SOL    HW185419   5.084   3.907  11.006
27804SOL    HW285420   5.054   3.956  11.146
27805SOL     OW85421   2.744   8.336   4.126
27805SOL    HW185422   2.718   8.364   4.038
27805SOL    HW285423   2.837   8.316   4.118
27806SOL     OW85424   2.001   5.899   6.144
27806SOL    HW185425   1.937   5.880   6.075
27806SOL    HW285426   1.996   5.824   6.203
27807SOL     OW85427   6.063   2.963   2.623
27807SOL    HW185428   5.992   2.917   2.578
27807SOL    HW285429   6.143   2.922   2.590
27808SOL     OW85430   9.362   3.956  10.067
27808SOL    HW185431   9.454   3.935  10.083
27808SOL    HW285432   9.361   3.989   9.977
27809SOL     OW85433   0.667  10.668   7.027
27809SOL    HW185434   0.623  10.733   7.082
27809SOL    HW285435   0.730  10.625   7.085
27810SOL     OW85436   7.031   4.198   3.478
27810SOL    HW185437   7.106   4.193   3.537
27810SOL    HW285438   6.958   4.226   3.533
27811SOL     OW85439   7.319   3.392   8.995
27811SOL    HW185440   7.243   3.353   8.952
27811SOL    HW285441   7.330   3.477   8.952
27812SOL     OW85442   2.033   5.810  10.790
27812SOL    HW185443   1.956   5.864  10.777
27812SOL    HW285444   2.015   5.730  10.739
27813SOL     OW85445   5.105   2.669   4.680
27813SOL    HW185446   5.028   2.699   4.632
27813SOL    HW285447   5.101   2.715   4.763
27814SOL     OW85448   6.727   9.828  10.640
27814SOL    HW185449   6.796   9.893  10.653
27814SOL    HW285450   6.742   9.763  10.709
27815SOL     OW85451   8.416   7.374   9.777
27815SOL    HW185452   8.443   7.450   9.827
27815SOL    HW285453   8.497   7.326   9.760
27816SOL     OW85454   6.872   8.281   0.101
27816SOL    HW185455   6.880   8.374   0.119
27816SOL    HW285456   6.962   8.248   0.102
27817SOL     OW85457   1.095   9.811   8.644
27817SOL    HW185458   1.156   9.756   8.594
27817SOL    HW285459   1.025   9.831   8.582
27818SOL     OW85460   4.228   4.677   1.434
27818SOL    HW185461   4.248   4.677   1.527
27818SOL    HW285462   4.149   4.731   1.426
27819SOL     OW85463   4.749   9.793   3.361
27819SOL    HW185464   4.820   9.840   3.405
27819SOL    HW285465   4.741   9.836   3.276
27820SOL     OW85466   8.706   6.478   3.395
27820SOL    HW185467   8.633   6.481   3.333
27820SOL    HW285468   8.670   6.513   3.476
27821SOL     OW85469   7.492   8.522   3.211
27821SOL    HW185470   7.472   8.537   3.118
27821SOL    HW285471   7.494   8.426   3.220
27822SOL     OW85472   6.444   7.766   2.422
27822SOL    HW185473   6.419   7.791   2.333
27822SOL    HW285474   6.512   7.829   2.446
27823SOL     OW85475   3.308   3.464   5.755
27823SOL    HW185476   3.250   3.388   5.765
27823SOL    HW285477   3.297   3.513   5.836
27824SOL     OW85478   1.446   5.199   5.890
27824SOL    HW185479   1.388   5.231   5.820
27824SOL    HW285480   1.530   5.185   5.846
27825SOL     OW85481   6.621   7.776   0.157
27825SOL    HW185482   6.569   7.855   0.169
27825SOL    HW285483   6.681   7.775   0.232
27826SOL     OW85484   0.492   1.961   0.906
27826SOL    HW185485   0.562   1.962   0.971
27826SOL    HW285486   0.526   1.907   0.834
27827SOL     OW85487   8.658   0.198   9.862
27827SOL    HW185488   8.739   0.248   9.857
27827SOL    HW285489   8.601   0.237   9.796
27828SOL     OW85490   5.940   4.863  10.624
27828SOL    HW185491   5.942   4.831  10.714
27828SOL    HW285492   6.024   4.835  10.587
27829SOL     OW85493   6.040   5.515  10.728
27829SOL    HW185494   6.134   5.501  10.713
27829SOL    HW285495   6.036   5.578  10.800
27830SOL     OW85496  11.028   4.523   6.256
27830SOL    HW185497  10.946   4.522   6.207
27830SOL    HW285498  11.096   4.513   6.189
27831SOL     OW85499   9.658   2.628  10.554
27831SOL    HW185500   9.660   2.609  10.460
27831SOL    HW285501   9.567   2.650  10.572
27832SOL     OW85502  10.645   8.111   9.062
27832SOL    HW185503  10.643   8.106   8.966
27832SOL    HW285504  10.706   8.182   9.081
27833SOL     OW85505   6.634   6.685   3.140
27833SOL    HW185506   6.595   6.630   3.071
27833SOL    HW285507   6.685   6.624   3.193
27834SOL     OW85508   6.316   6.115   4.592
27834SOL    HW185509   6.356   6.201   4.600
27834SOL    HW285510   6.294   6.090   4.681
27835SOL     OW85511   6.342   2.205   1.025
27835SOL    HW185512   6.345   2.300   1.029
27835SOL    HW285513   6.294   2.179   1.103
27836SOL     OW85514   9.867  10.829   2.501
27836SOL    HW185515   9.796  10.858   2.443
27836SOL    HW285516   9.943  10.882   2.474
27837SOL     OW85517   0.985   7.078   4.532
27837SOL    HW185518   1.060   7.023   4.506
27837SOL    HW285519   0.927   7.018   4.580
27838SOL     OW85520   4.415   9.590   0.468
27838SOL    HW185521   4.373   9.661   0.420
27838SOL    HW285522   4.349   9.561   0.531
27839SOL     OW85523   1.674   0.362   9.459
27839SOL    HW185524   1.700   0.342   9.369
27839SOL    HW285525   1.596   0.308   9.474
27840SOL     OW85526   6.322   9.299   2.152
27840SOL    HW185527   6.351   9.388   2.135
27840SOL    HW285528   6.369   9.246   2.087
27841SOL     OW85529   7.977   6.723   0.406
27841SOL    HW185530   8.023   6.640   0.389
27841SOL    HW285531   7.919   6.703   0.479
27842SOL     OW85532   2.892   1.685   1.531
27842SOL    HW185533   2.801   1.657   1.534
27842SOL    HW285534   2.934   1.638   1.603
27843SOL     OW85535   5.336   4.189   4.927
27843SOL    HW185536   5.369   4.099   4.934
27843SOL    HW285537   5.407   4.243   4.962
27844SOL     OW85538   8.557   0.870   6.004
27844SOL    HW185539   8.512   0.789   5.980
27844SOL    HW285540   8.512   0.938   5.954
27845SOL     OW85541   4.409   8.433   1.779
27845SOL    HW185542   4.484   8.486   1.751
27845SOL    HW285543   4.410   8.357   1.720
27846SOL     OW85544   8.847   7.112   2.192
27846SOL    HW185545   8.774   7.125   2.252
27846SOL    HW285546   8.828   7.029   2.148
27847SOL     OW85547   8.941  10.950   2.770
27847SOL    HW185548   9.000  10.897   2.823
27847SOL    HW285549   8.998  10.994   2.707
27848SOL     OW85550   2.854   8.097   1.953
27848SOL    HW185551   2.868   8.066   2.042
27848SOL    HW285552   2.856   8.017   1.899
27849SOL     OW85553  10.317  10.065   1.270
27849SOL    HW185554  10.395  10.052   1.216
27849SOL    HW285555  10.274   9.979   1.271
27850SOL     OW85556   8.866   2.498   7.716
27850SOL    HW185557   8.877   2.449   7.634
27850SOL    HW285558   8.779   2.538   7.709
27851SOL     OW85559  10.038   5.758  10.309
27851SOL    HW185560  10.058   5.819  10.238
27851SOL    HW285561  10.078   5.675  10.281
27852SOL     OW85562   4.951   9.541  11.000
27852SOL    HW185563   4.900   9.594  11.061
27852SOL    HW285564   4.915   9.562  10.913
27853SOL     OW85565   0.662   1.938   6.536
27853SOL    HW185566   0.600   1.866   6.523
27853SOL    HW285567   0.619   2.015   6.499
27854SOL     OW85568   5.906   9.448   1.654
27854SOL    HW185569   5.959   9.411   1.583
27854SOL    HW285570   5.820   9.407   1.643
27855SOL     OW85571   5.771   5.994   1.403
27855SOL    HW185572   5.734   6.043   1.329
27855SOL    HW285573   5.818   6.059   1.454
27856SOL     OW85574   2.282   0.918  10.601
27856SOL    HW185575   2.361   0.865  10.589
27856SOL    HW285576   2.222   0.888  10.532
27857SOL     OW85577   1.640   4.806   7.212
27857SOL    HW185578   1.716   4.838   7.163
27857SOL    HW285579   1.653   4.711   7.217
27858SOL     OW85580   8.844   2.905   2.834
27858SOL    HW185581   8.756   2.900   2.797
27858SOL    HW285582   8.847   2.834   2.898
27859SOL     OW85583   3.242   2.781  11.039
27859SOL    HW185584   3.239   2.788  11.134
27859SOL    HW285585   3.153   2.757  11.014
27860SOL     OW85586   3.195   8.298   8.898
27860SOL    HW185587   3.248   8.345   8.962
27860SOL    HW285588   3.208   8.205   8.919
27861SOL     OW85589   9.445   7.913   4.197
27861SOL    HW185590   9.377   7.882   4.137
27861SOL    HW285591   9.492   7.833   4.223
27862SOL     OW85592   1.528   5.939   1.087
27862SOL    HW185593   1.501   5.949   1.178
27862SOL    HW285594   1.558   5.848   1.081
27863SOL     OW85595   9.577   8.149   8.831
27863SOL    HW185596   9.505   8.089   8.850
27863SOL    HW285597   9.593   8.137   8.737
27864SOL     OW85598   8.610  11.078  10.883
27864SOL    HW185599   8.650  11.000  10.921
27864SOL    HW285600   8.565  11.047  10.804
27865SOL     OW85601   0.909   8.589   2.598
27865SOL    HW185602   0.913   8.628   2.685
27865SOL    HW285603   0.873   8.501   2.612
27866SOL     OW85604  10.589   3.874   5.224
27866SOL    HW185605  10.535   3.809   5.270
27866SOL    HW285606  10.662   3.823   5.188
27867SOL     OW85607   6.215   9.031   8.725
27867SOL    HW185608   6.153   8.976   8.773
27867SOL    HW285609   6.206   9.002   8.634
27868SOL     OW85610   8.749   7.880   6.649
27868SOL    HW185611   8.808   7.903   6.577
27868SOL    HW285612   8.671   7.845   6.605
27869SOL     OW85613   6.080   4.118   0.791
27869SOL    HW185614   6.082   4.210   0.815
27869SOL    HW285615   6.096   4.117   0.696
27870SOL     OW85616   6.693  10.157  10.273
27870SOL    HW185617   6.630  10.161  10.345
27870SOL    HW285618   6.703  10.063  10.255
27871SOL     OW85619   6.761   5.533   7.262
27871SOL    HW185620   6.743   5.525   7.168
27871SOL    HW285621   6.781   5.625   7.275
27872SOL     OW85622   9.855   4.182   9.784
27872SOL    HW185623   9.852   4.168   9.689
27872SOL    HW285624   9.774   4.142   9.816
27873SOL     OW85625   3.058   5.212   6.349
27873SOL    HW185626   3.093   5.131   6.387
27873SOL    HW285627   2.982   5.233   6.403
27874SOL     OW85628   4.144  10.256   9.926
27874SOL    HW185629   4.067  10.279   9.977
27874SOL    HW285630   4.151  10.161   9.934
27875SOL     OW85631   5.138  10.898   0.694
27875SOL    HW185632   5.167  10.817   0.652
27875SOL    HW285633   5.068  10.931   0.637
27876SOL     OW85634  10.298   1.300   3.002
27876SOL    HW185635  10.301   1.217   2.954
27876SOL    HW285636  10.329   1.365   2.938
27877SOL     OW85637   0.913   5.165   2.973
27877SOL    HW185638   0.949   5.077   2.959
27877SOL    HW285639   0.864   5.183   2.893
27878SOL     OW85640   5.782   9.340   3.267
27878SOL    HW185641   5.697   9.316   3.231
27878SOL    HW285642   5.834   9.363   3.190
27879SOL     OW85643   3.854   1.508   9.038
27879SOL    HW185644   3.891   1.442   8.978
27879SOL    HW285645   3.771   1.470   9.067
27880SOL     OW85646   5.180  10.647   0.527
27880SOL    HW185647   5.234  10.714   0.485
27880SOL    HW285648   5.147  10.594   0.454
27881SOL     OW85649   8.700   5.356   1.247
27881SOL    HW185650   8.655   5.357   1.331
27881SOL    HW285651   8.792   5.375   1.268
27882SOL     OW85652   8.683   0.929   2.203
27882SOL    HW185653   8.687   0.923   2.298
27882SOL    HW285654   8.730   1.009   2.182
27883SOL     OW85655   6.186   4.633   5.953
27883SOL    HW185656   6.256   4.696   5.939
27883SOL    HW285657   6.113   4.684   5.988
27884SOL     OW85658   9.101   2.065   1.825
27884SOL    HW185659   9.047   2.131   1.782
27884SOL    HW285660   9.165   2.039   1.758
27885SOL     OW85661   8.546   5.138  10.080
27885SOL    HW185662   8.476   5.197  10.053
27885SOL    HW285663   8.572   5.169  10.166
27886SOL     OW85664   6.809   1.098   1.858
27886SOL    HW185665   6.900   1.114   1.833
27886SOL    HW285666   6.773   1.184   1.877
27887SOL     OW85667   3.523  10.081  10.094
27887SOL    HW185668   3.602  10.060  10.144
27887SOL    HW285669   3.472  10.000  10.095
27888SOL     OW85670   5.165   7.807   3.293
27888SOL    HW185671   5.193   7.725   3.333
27888SOL    HW285672   5.161   7.869   3.365
27889SOL     OW85673   6.306  11.097  11.012
27889SOL    HW185674   6.354  11.075  11.092
27889SOL    HW285675   6.330  11.028  10.950
27890SOL     OW85676   2.244   4.547   3.356
27890SOL    HW185677   2.321   4.499   3.387
27890SOL    HW285678   2.201   4.486   3.296
27891SOL     OW85679   8.952   0.338   9.317
27891SOL    HW185680   9.011   0.405   9.283
27891SOL    HW285681   8.877   0.339   9.257
27892SOL     OW85682   9.197   7.255   2.748
27892SOL    HW185683   9.197   7.311   2.671
27892SOL    HW285684   9.176   7.168   2.713
27893SOL     OW85685   6.905   1.754   2.308
27893SOL    HW185686   6.836   1.786   2.366
27893SOL    HW285687   6.871   1.769   2.219
27894SOL     OW85688   0.987   6.831   7.348
27894SOL    HW185689   1.048   6.875   7.407
27894SOL    HW285690   1.021   6.741   7.341
27895SOL     OW85691   6.461   2.573   0.781
27895SOL    HW185692   6.478   2.624   0.702
27895SOL    HW285693   6.366   2.577   0.792
27896SOL     OW85694   3.119   6.944   0.757
27896SOL    HW185695   3.122   6.939   0.852
27896SOL    HW285696   3.190   7.004   0.733
27897SOL     OW85697   7.067   6.609   0.580
27897SOL    HW185698   7.152   6.614   0.536
27897SOL    HW285699   7.086   6.629   0.671
27898SOL     OW85700   0.286   9.238   6.844
27898SOL    HW185701   0.293   9.333   6.853
27898SOL    HW285702   0.192   9.222   6.830
27899SOL     OW85703   4.396   0.086   1.832
27899SOL    HW185704   4.387   0.030   1.754
27899SOL    HW285705   4.344   0.041   1.899
27900SOL     OW85706   7.992   1.112  10.808
27900SOL    HW185707   8.073   1.162  10.820
27900SOL    HW285708   7.956   1.143  10.725
27901SOL     OW85709   3.732   0.743   8.735
27901SOL    HW185710   3.744   0.803   8.808
27901SOL    HW285711   3.678   0.791   8.672
27902SOL     OW85712   6.251   7.173   6.554
27902SOL    HW185713   6.313   7.105   6.527
27902SOL    HW285714   6.197   7.131   6.621
27903SOL     OW85715   1.749  10.130  10.018
27903SOL    HW185716   1.696  10.192  10.068
27903SOL    HW285717   1.693  10.104   9.945
27904SOL     OW85718   1.490   0.524  10.383
27904SOL    HW185719   1.485   0.440  10.429
27904SOL    HW285720   1.565   0.514  10.323
27905SOL     OW85721  10.329   4.993   3.050
27905SOL    HW185722  10.281   4.975   3.131
27905SOL    HW285723  10.262   5.020   2.987
27906SOL     OW85724   8.863   6.759   5.155
27906SOL    HW185725   8.872   6.670   5.189
27906SOL    HW285726   8.872   6.748   5.060
27907SOL     OW85727   9.128   7.737   9.978
27907SOL    HW185728   9.090   7.821  10.003
27907SOL    HW285729   9.189   7.758   9.907
27908SOL     OW85730   5.563   2.402   2.551
27908SOL    HW185731   5.633   2.453   2.591
27908SOL    HW285732   5.509   2.466   2.506
27909SOL     OW85733   6.071   8.814   3.296
27909SOL    HW185734   6.122   8.889   3.266
27909SOL    HW285735   6.020   8.847   3.370
27910SOL     OW85736   7.518   9.552   3.767
27910SOL    HW185737   7.429   9.536   3.797
27910SOL    HW285738   7.547   9.629   3.816
27911SOL     OW85739  10.670   0.477   8.074
27911SOL    HW185740  10.730   0.551   8.080
27911SOL    HW285741  10.589   0.508   8.114
27912SOL     OW85742  10.057   1.239  10.140
27912SOL    HW185743  10.053   1.151  10.179
27912SOL    HW285744   9.966   1.269  10.138
27913SOL     OW85745   7.117  10.561   2.186
27913SOL    HW185746   7.065  10.638   2.163
27913SOL    HW285747   7.053  10.490   2.193
27914SOL     OW85748   8.742   9.271   4.381
27914SOL    HW185749   8.735   9.357   4.422
27914SOL    HW285750   8.756   9.210   4.453
27915SOL     OW85751  10.771  10.310   5.859
27915SOL    HW185752  10.705  10.378   5.867
27915SOL    HW285753  10.735  10.236   5.907
27916SOL     OW85754   9.975   5.902   2.553
27916SOL    HW185755   9.882   5.923   2.556
27916SOL    HW285756  10.017   5.984   2.529
27917SOL     OW85757   6.347  10.569   4.594
27917SOL    HW185758   6.391  10.514   4.529
27917SOL    HW285759   6.300  10.507   4.650
27918SOL     OW85760   5.887   0.183  10.203
27918SOL    HW185761   5.960   0.148  10.254
27918SOL    HW285762   5.855   0.257  10.254
27919SOL     OW85763  10.913   2.415   3.280
27919SOL    HW185764  10.921   2.455   3.193
27919SOL    HW285765  10.884   2.325   3.261
27920SOL     OW85766   1.304   2.106   9.258
27920SOL    HW185767   1.352   2.161   9.196
27920SOL    HW285768   1.347   2.020   9.252
27921SOL     OW85769   5.319   9.119   3.419
27921SOL    HW185770   5.329   9.066   3.340
27921SOL    HW285771   5.225   9.116   3.438
27922SOL     OW85772   9.882   1.872   2.974
27922SOL    HW185773   9.834   1.954   2.981
27922SOL    HW285774   9.827   1.808   3.019
27923SOL     OW85775   9.446   9.764   3.155
27923SOL    HW185776   9.357   9.732   3.145
27923SOL    HW285777   9.455   9.784   3.248
27924SOL     OW85778   4.450   4.676   1.305
27924SOL    HW185779   4.461   4.581   1.312
27924SOL    HW285780   4.359   4.691   1.330
27925SOL     OW85781   3.968   6.921   3.496
27925SOL    HW185782   3.952   6.869   3.416
27925SOL    HW285783   4.035   6.984   3.470
27926SOL     OW85784   5.299  10.630   6.830
27926SOL    HW185785   5.378  10.631   6.776
27926SOL    HW285786   5.311  10.702   6.891
27927SOL     OW85787  10.524   6.824   9.370
27927SOL    HW185788  10.537   6.794   9.460
27927SOL    HW285789  10.445   6.877   9.373
27928SOL     OW85790   4.716   2.858   0.813
27928SOL    HW185791   4.725   2.909   0.893
27928SOL    HW285792   4.647   2.902   0.763
27929SOL     OW85793   4.816   9.074  10.551
27929SOL    HW185794   4.783   9.076  10.640
27929SOL    HW285795   4.738   9.082  10.496
27930SOL     OW85796   6.158   9.368   7.410
27930SOL    HW185797   6.156   9.463   7.399
27930SOL    HW285798   6.212   9.337   7.337
27931SOL     OW85799   7.307   7.849   3.575
27931SOL    HW185800   7.282   7.786   3.507
27931SOL    HW285801   7.238   7.915   3.573
27932SOL     OW85802   3.230   5.539   6.909
27932SOL    HW185803   3.241   5.598   6.835
27932SOL    HW285804   3.301   5.476   6.899
27933SOL     OW85805   0.786   5.862   2.609
27933SOL    HW185806   0.778   5.871   2.704
27933SOL    HW285807   0.717   5.917   2.573
27934SOL     OW85808  10.083   6.085   4.692
27934SOL    HW185809  10.075   6.169   4.646
27934SOL    HW285810  10.031   6.095   4.771
27935SOL     OW85811   6.290   0.035   0.459
27935SOL    HW185812   6.214   0.081   0.494
27935SOL    HW285813   6.340   0.102   0.413
27936SOL     OW85814   2.647  10.659   0.381
27936SOL    HW185815   2.583  10.721   0.347
27936SOL    HW285816   2.707  10.644   0.308
27937SOL     OW85817   7.757   7.763  10.948
27937SOL    HW185818   7.764   7.808  10.864
27937SOL    HW285819   7.823   7.694  10.944
27938SOL     OW85820   5.821   8.116   9.452
27938SOL    HW185821   5.815   8.072   9.367
27938SOL    HW285822   5.750   8.180   9.451
27939SOL     OW85823   1.150  11.009   0.212
27939SOL    HW185824   1.227  11.013   0.269
27939SOL    HW285825   1.162  10.929   0.161
27940SOL     OW85826   3.093   6.224  10.496
27940SOL    HW185827   3.024   6.168  10.460
27940SOL    HW285828   3.153   6.239  10.422
27941SOL     OW85829   1.275   7.162   5.545
27941SOL    HW185830   1.193   7.166   5.593
27941SOL    HW285831   1.340   7.135   5.610
27942SOL     OW85832   3.101  10.150   3.078
27942SOL    HW185833   3.126  10.194   3.159
27942SOL    HW285834   3.014  10.185   3.057
27943SOL     OW85835   3.447  10.770   7.194
27943SOL    HW185836   3.493  10.687   7.184
27943SOL    HW285837   3.374  10.750   7.253
27944SOL     OW85838   1.371   5.713   3.934
27944SOL    HW185839   1.304   5.774   3.904
27944SOL    HW285840   1.422   5.762   3.998
27945SOL     OW85841   6.864   0.449   3.588
27945SOL    HW185842   6.944   0.501   3.583
27945SOL    HW285843   6.895   0.358   3.592
27946SOL     OW85844   8.615   5.363   2.999
27946SOL    HW185845   8.556   5.438   3.003
27946SOL    HW285846   8.683   5.389   2.937
27947SOL     OW85847   0.623   5.439   9.101
27947SOL    HW185848   0.639   5.352   9.064
27947SOL    HW285849   0.656   5.434   9.190
27948SOL     OW85850   7.860   0.659   5.117
27948SOL    HW185851   7.856   0.667   5.212
27948SOL    HW285852   7.883   0.746   5.086
27949SOL     OW85853  10.912   6.886   1.857
27949SOL    HW185854  10.911   6.981   1.850
27949SOL    HW285855  10.820   6.860   1.849
27950SOL     OW85856   4.431   1.413   7.092
27950SOL    HW185857   4.451   1.489   7.145
27950SOL    HW285858   4.343   1.430   7.057
27951SOL     OW85859   9.980   5.328   9.651
27951SOL    HW185860  10.037   5.261   9.690
27951SOL    HW285861   9.900   5.280   9.627
27952SOL     OW85862   5.823  10.664   0.315
27952SOL    HW185863   5.735  10.654   0.350
27952SOL    HW285864   5.841  10.758   0.321
27953SOL     OW85865   3.038   3.050  10.174
27953SOL    HW185866   2.945   3.072  10.170
27953SOL    HW285867   3.057   3.043  10.267
27954SOL     OW85868   2.104   8.008   3.588
27954SOL    HW185869   2.184   8.060   3.582
27954SOL    HW285870   2.129   7.922   3.554
27955SOL     OW85871  10.019   9.699   8.517
27955SOL    HW185872   9.995   9.729   8.429
27955SOL    HW285873  10.027   9.779   8.568
27956SOL     OW85874   6.416   5.418   1.773
27956SOL    HW185875   6.332   5.403   1.730
27956SOL    HW285876   6.400   5.491   1.833
27957SOL     OW85877   4.010   8.078  10.927
27957SOL    HW185878   4.021   8.171  10.908
27957SOL    HW285879   4.016   8.035  10.841
27958SOL     OW85880  10.351   8.547   9.318
27958SOL    HW185881  10.370   8.476   9.380
27958SOL    HW285882  10.383   8.514   9.234
27959SOL     OW85883   7.343   3.642   3.604
27959SOL    HW185884   7.336   3.737   3.601
27959SOL    HW285885   7.328   3.620   3.696
27960SOL     OW85886   2.802   9.937   7.347
27960SOL    HW185887   2.871   9.984   7.301
27960SOL    HW285888   2.847   9.892   7.418
27961SOL     OW85889   7.040  10.565   6.703
27961SOL    HW185890   6.993  10.614   6.635
27961SOL    HW285891   7.005  10.599   6.785
27962SOL     OW85892   2.997   6.615   1.111
27962SOL    HW185893   2.919   6.564   1.091
27962SOL    HW285894   3.069   6.561   1.078
27963SOL     OW85895   2.807   2.026   9.357
27963SOL    HW185896   2.898   2.002   9.375
27963SOL    HW285897   2.782   2.083   9.430
27964SOL     OW85898   2.230   7.400   7.216
27964SOL    HW185899   2.316   7.432   7.244
27964SOL    HW285900   2.219   7.436   7.128
27965SOL     OW85901   8.792  10.305   1.800
27965SOL    HW185902   8.849  10.319   1.875
27965SOL    HW285903   8.800  10.385   1.748
27966SOL     OW85904   8.503   5.860   6.465
27966SOL    HW185905   8.475   5.799   6.534
27966SOL    HW285906   8.582   5.820   6.428
27967SOL     OW85907   3.946   6.287   5.565
27967SOL    HW185908   3.899   6.324   5.639
27967SOL    HW285909   4.031   6.331   5.566
27968SOL     OW85910   5.802   0.649   0.506
27968SOL    HW185911   5.808   0.670   0.412
27968SOL    HW285912   5.835   0.727   0.550
27969SOL     OW85913   5.772   8.462  10.964
27969SOL    HW185914   5.703   8.510  11.010
27969SOL    HW285915   5.827   8.530  10.925
27970SOL     OW85916   2.222  11.079   8.728
27970SOL    HW185917   2.276  11.030   8.790
27970SOL    HW285918   2.166  11.134   8.783
27971SOL     OW85919   9.817   3.963   3.859
27971SOL    HW185920   9.832   4.012   3.939
27971SOL    HW285921   9.745   4.009   3.815
27972SOL     OW85922   6.743   0.052  10.595
27972SOL    HW185923   6.775  -0.010  10.660
27972SOL    HW285924   6.713  -0.003  10.522
27973SOL     OW85925   5.116   4.524   7.901
27973SOL    HW185926   5.189   4.585   7.895
27973SOL    HW285927   5.038   4.579   7.901
27974SOL     OW85928   0.298   1.498  10.112
27974SOL    HW185929   0.383   1.466  10.140
27974SOL    HW285930   0.253   1.522  10.193
27975SOL     OW85931   3.170  10.113   9.142
27975SOL    HW185932   3.218  10.165   9.077
27975SOL    HW285933   3.238  10.065   9.189
27976SOL     OW85934   9.881   4.746   5.287
27976SOL    HW185935   9.820   4.814   5.259
27976SOL    HW285936   9.885   4.686   5.212
27977SOL     OW85937   9.903   5.783   3.926
27977SOL    HW185938   9.855   5.700   3.929
27977SOL    HW285939   9.837   5.849   3.946
27978SOL     OW85940   0.320   8.503   0.556
27978SOL    HW185941   0.279   8.473   0.474
27978SOL    HW285942   0.250   8.498   0.621
27979SOL     OW85943   7.054   4.704   0.486
27979SOL    HW185944   6.997   4.714   0.410
27979SOL    HW285945   7.065   4.609   0.495
27980SOL     OW85946   8.764   4.094   1.550
27980SOL    HW185947   8.728   4.120   1.634
27980SOL    HW285948   8.858   4.082   1.566
27981SOL     OW85949   1.788   3.202   1.901
27981SOL    HW185950   1.835   3.171   1.978
27981SOL    HW285951   1.831   3.158   1.828
27982SOL     OW85952   3.678   8.294   4.503
27982SOL    HW185953   3.681   8.275   4.409
27982SOL    HW285954   3.765   8.330   4.523
27983SOL     OW85955   8.390   3.717   0.195
27983SOL    HW185956   8.296   3.712   0.176
27983SOL    HW285957   8.432   3.714   0.109
27984SOL     OW85958   2.132   6.199   8.939
27984SOL    HW185959   2.109   6.266   8.875
27984SOL    HW285960   2.051   6.183   8.988
27985SOL     OW85961  10.185   9.082   1.795
27985SOL    HW185962  10.098   9.055   1.766
27985SOL    HW285963  10.236   9.089   1.714
27986SOL     OW85964   0.156  10.803   1.959
27986SOL    HW185965   0.217  10.866   1.920
27986SOL    HW285966   0.069  10.836   1.935
27987SOL     OW85967   2.771   2.571   4.183
27987SOL    HW185968   2.778   2.504   4.251
27987SOL    HW285969   2.690   2.550   4.136
27988SOL     OW85970   8.569   5.128   8.350
27988SOL    HW185971   8.502   5.176   8.398
27988SOL    HW285972   8.541   5.036   8.353
27989SOL     OW85973   2.251   2.354  10.387
27989SOL    HW185974   2.341   2.351  10.355
27989SOL    HW285975   2.240   2.271  10.433
27990SOL     OW85976   1.318  10.893   8.349
27990SOL    HW185977   1.347  10.967   8.295
27990SOL    HW285978   1.232  10.919   8.382
27991SOL     OW85979   7.145   7.664   1.313
27991SOL    HW185980   7.195   7.692   1.389
27991SOL    HW285981   7.098   7.742   1.285
27992SOL     OW85982   4.632   6.950   4.086
27992SOL    HW185983   4.652   6.859   4.109
27992SOL    HW285984   4.550   6.944   4.037
27993SOL     OW85985   5.336   7.778   9.905
27993SOL    HW185986   5.357   7.867   9.877
27993SOL    HW285987   5.252   7.786   9.949
27994SOL     OW85988   0.587   6.453   3.038
27994SOL    HW185989   0.527   6.414   3.102
27994SOL    HW285990   0.559   6.416   2.954
27995SOL     OW85991   1.708   9.547   7.618
27995SOL    HW185992   1.670   9.586   7.696
27995SOL    HW285993   1.725   9.621   7.560
27996SOL     OW85994   8.504   8.247   7.133
27996SOL    HW185995   8.575   8.187   7.108
27996SOL    HW285996   8.431   8.189   7.155
27997SOL     OW85997   6.215   5.421   8.841
27997SOL    HW185998   6.288   5.466   8.798
27997SOL    HW285999   6.249   5.334   8.861
27998SOL     OW86000   6.563   8.631   8.920
27998SOL    HW186001   6.554   8.542   8.956
27998SOL    HW286002   6.487   8.641   8.863
27999SOL     OW86003   6.215   9.224   4.137
27999SOL    HW186004   6.142   9.285   4.129
27999SOL    HW286005   6.231   9.218   4.231
28000SOL     OW86006   5.782  10.396   0.218
28000SOL    HW186007   5.786  10.436   0.131
28000SOL    HW286008   5.797  10.468   0.278
28001SOL     OW86009   5.493   9.606   3.270
28001SOL    HW186010   5.524   9.643   3.352
28001SOL    HW286011   5.505   9.511   3.280
28002SOL     OW86012   5.307   0.110   3.070
28002SOL    HW186013   5.329   0.184   3.126
28002SOL    HW286014   5.382   0.050   3.078
28003SOL     OW86015   7.304   3.898  10.592
28003SOL    HW186016   7.356   3.844  10.651
28003SOL    HW286017   7.286   3.840  10.517
28004SOL     OW86018   2.115   2.517   6.273
28004SOL    HW186019   2.157   2.602   6.278
28004SOL    HW286020   2.051   2.526   6.202
28005SOL     OW86021  10.233   4.095   8.647
28005SOL    HW186022  10.244   4.188   8.664
28005SOL    HW286023  10.178   4.091   8.569
28006SOL     OW86024  10.984   6.254   1.117
28006SOL    HW186025  10.997   6.225   1.207
28006SOL    HW286026  10.913   6.318   1.122
28007SOL     OW86027   1.135   6.779   3.792
28007SOL    HW186028   1.123   6.697   3.744
28007SOL    HW286029   1.053   6.790   3.840
28008SOL     OW86030   0.700   0.806   8.936
28008SOL    HW186031   0.695   0.827   9.029
28008SOL    HW286032   0.794   0.803   8.917
28009SOL     OW86033   2.510   4.063   2.243
28009SOL    HW186034   2.521   4.138   2.301
28009SOL    HW286035   2.598   4.028   2.231
28010SOL     OW86036   7.641   1.448   1.351
28010SOL    HW186037   7.650   1.362   1.310
28010SOL    HW286038   7.668   1.510   1.283
28011SOL     OW86039   6.102   9.588  10.307
28011SOL    HW186040   6.183   9.539  10.289
28011SOL    HW286041   6.034   9.520  10.313
28012SOL     OW86042   9.354   7.287   1.573
28012SOL    HW186043   9.392   7.200   1.588
28012SOL    HW286044   9.423   7.348   1.599
28013SOL     OW86045   3.193  10.890  10.801
28013SOL    HW186046   3.229  10.850  10.722
28013SOL    HW286047   3.270  10.911  10.854
28014SOL     OW86048   6.359  10.403   3.676
28014SOL    HW186049   6.367  10.325   3.621
28014SOL    HW286050   6.428  10.461   3.644
28015SOL     OW86051   1.897   9.108   6.103
28015SOL    HW186052   1.872   9.199   6.088
28015SOL    HW286053   1.992   9.107   6.093
28016SOL     OW86054   7.936   8.344   9.112
28016SOL    HW186055   7.894   8.397   9.044
28016SOL    HW286056   8.016   8.392   9.134
28017SOL     OW86057   9.302   6.687   8.747
28017SOL    HW186058   9.221   6.675   8.796
28017SOL    HW286059   9.343   6.765   8.784
28018SOL     OW86060   6.086   6.574   7.088
28018SOL    HW186061   6.085   6.599   6.995
28018SOL    HW286062   6.162   6.619   7.124
28019SOL     OW86063   9.057   7.014   9.655
28019SOL    HW186064   9.082   6.961   9.731
28019SOL    HW286065   9.114   7.091   9.659
28020SOL     OW86066   7.734   9.530   9.014
28020SOL    HW186067   7.751   9.623   9.024
28020SOL    HW286068   7.668   9.525   8.945
28021SOL     OW86069   8.953   8.907   7.366
28021SOL    HW186070   9.035   8.930   7.409
28021SOL    HW286071   8.971   8.824   7.322
28022SOL     OW86072   1.929   8.755   5.297
28022SOL    HW186073   1.932   8.760   5.201
28022SOL    HW286074   1.844   8.793   5.320
28023SOL     OW86075   0.688   1.438  10.662
28023SOL    HW186076   0.640   1.439  10.579
28023SOL    HW286077   0.630   1.484  10.723
28024SOL     OW86078   4.551   4.469   2.033
28024SOL    HW186079   4.504   4.495   1.954
28024SOL    HW286080   4.598   4.389   2.008
28025SOL     OW86081  10.244   1.475   0.893
28025SOL    HW186082  10.178   1.481   0.824
28025SOL    HW286083  10.261   1.381   0.902
28026SOL     OW86084   7.861   9.544   8.167
28026SOL    HW186085   7.940   9.554   8.114
28026SOL    HW286086   7.796   9.597   8.122
28027SOL     OW86087   7.898   5.995   2.147
28027SOL    HW186088   7.857   5.941   2.079
28027SOL    HW286089   7.926   5.932   2.214
28028SOL     OW86090   7.653   4.807   8.315
28028SOL    HW186091   7.615   4.894   8.301
28028SOL    HW286092   7.680   4.778   8.227
28029SOL     OW86093   6.753   5.035   2.388
28029SOL    HW186094   6.763   5.075   2.474
28029SOL    HW286095   6.813   4.960   2.389
28030SOL     OW86096   6.466   0.510   6.042
28030SOL    HW186097   6.506   0.590   6.074
28030SOL    HW286098   6.456   0.455   6.119
28031SOL     OW86099   0.039   9.096  10.017
28031SOL    HW186100  -0.054   9.114  10.029
28031SOL    HW286101   0.070   9.166   9.960
28032SOL     OW86102   7.501   6.539  10.043
28032SOL    HW186103   7.537   6.472   9.984
28032SOL    HW286104   7.493   6.617   9.988
28033SOL     OW86105   8.926   1.805   8.519
28033SOL    HW186106   8.949   1.738   8.454
28033SOL    HW286107   8.834   1.824   8.502
28034SOL     OW86108   9.205   3.400   3.476
28034SOL    HW186109   9.166   3.446   3.550
28034SOL    HW286110   9.300   3.408   3.490
28035SOL     OW86111   9.037   3.043   6.675
28035SOL    HW186112   9.067   3.037   6.584
28035SOL    HW286113   9.070   3.127   6.706
28036SOL     OW86114   8.208   5.199   1.942
28036SOL    HW186115   8.155   5.120   1.927
28036SOL    HW286116   8.297   5.165   1.955
28037SOL     OW86117   6.218   5.425   4.189
28037SOL    HW186118   6.279   5.469   4.130
28037SOL    HW286119   6.274   5.377   4.250
28038SOL     OW86120   8.640   6.118   7.944
28038SOL    HW186121   8.633   6.024   7.925
28038SOL    HW286122   8.628   6.124   8.038
28039SOL     OW86123   9.726   2.559   3.979
28039SOL    HW186124   9.674   2.597   4.050
28039SOL    HW286125   9.817   2.578   4.003
28040SOL     OW86126   1.686   5.297   7.114
28040SOL    HW186127   1.731   5.326   7.035
28040SOL    HW286128   1.598   5.334   7.106
28041SOL     OW86129   3.942   7.960   8.490
28041SOL    HW186130   3.901   8.027   8.435
28041SOL    HW286131   3.869   7.918   8.536
28042SOL     OW86132   0.710   4.602   2.377
28042SOL    HW186133   0.730   4.508   2.385
28042SOL    HW286134   0.661   4.623   2.456
28043SOL     OW86135   5.735   0.463   2.750
28043SOL    HW186136   5.775   0.409   2.818
28043SOL    HW286137   5.642   0.465   2.772
28044SOL     OW86138   9.516   9.807   0.471
28044SOL    HW186139   9.432   9.786   0.511
28044SOL    HW286140   9.493   9.849   0.388
28045SOL     OW86141  10.433   9.205   0.032
28045SOL    HW186142  10.367   9.205  -0.036
28045SOL    HW286143  10.383   9.207   0.114
28046SOL     OW86144  10.961   3.354   7.939
28046SOL    HW186145  10.942   3.447   7.945
28046SOL    HW286146  10.967   3.337   7.845
28047SOL     OW86147   0.048  10.044   3.562
28047SOL    HW186148   0.117  10.104   3.534
28047SOL    HW286149  -0.022  10.056   3.497
28048SOL     OW86150   6.020   4.020   3.598
28048SOL    HW186151   6.031   3.925   3.595
28048SOL    HW286152   5.978   4.042   3.515
28049SOL     OW86153   1.768   4.152   9.148
28049SOL    HW186154   1.718   4.233   9.140
28049SOL    HW286155   1.836   4.159   9.081
28050SOL     OW86156   3.541   8.919   9.273
28050SOL    HW186157   3.484   8.842   9.270
28050SOL    HW286158   3.515   8.971   9.197
28051SOL     OW86159   3.945   6.903   0.629
28051SOL    HW186160   3.861   6.946   0.612
28051SOL    HW286161   3.954   6.904   0.724
28052SOL     OW86162   4.458   8.470  10.814
28052SOL    HW186163   4.495   8.418  10.742
28052SOL    HW286164   4.520   8.542  10.825
28053SOL     OW86165   6.894   7.880   3.580
28053SOL    HW186166   6.895   7.831   3.662
28053SOL    HW286167   6.878   7.813   3.513
28054SOL     OW86168   2.317   7.905   8.814
28054SOL    HW186169   2.361   7.974   8.764
28054SOL    HW286170   2.360   7.907   8.899
28055SOL     OW86171   5.331  10.442  10.215
28055SOL    HW186172   5.364  10.423  10.303
28055SOL    HW286173   5.237  10.452  10.226
28056SOL     OW86174   6.879   7.522   1.201
28056SOL    HW186175   6.930   7.595   1.235
28056SOL    HW286176   6.793   7.559   1.181
28057SOL     OW86177   4.239   5.521   2.329
28057SOL    HW186178   4.206   5.450   2.274
28057SOL    HW286179   4.174   5.529   2.399
28058SOL     OW86180   7.503   1.086   3.045
28058SOL    HW186181   7.587   1.050   3.016
28058SOL    HW286182   7.464   1.016   3.097
28059SOL     OW86183   3.202   7.736  10.290
28059SOL    HW186184   3.241   7.656  10.252
28059SOL    HW286185   3.115   7.709  10.319
28060SOL     OW86186   1.887   3.571   6.710
28060SOL    HW186187   1.844   3.556   6.794
28060SOL    HW286188   1.827   3.535   6.645
28061SOL     OW86189  10.872   2.830   8.719
28061SOL    HW186190  10.845   2.743   8.748
28061SOL    HW286191  10.856   2.887   8.794
28062SOL     OW86192   5.131   6.706   2.354
28062SOL    HW186193   5.176   6.696   2.438
28062SOL    HW286194   5.075   6.628   2.347
28063SOL     OW86195  10.888   8.365   9.926
28063SOL    HW186196  10.793   8.361   9.936
28063SOL    HW286197  10.916   8.273   9.929
28064SOL     OW86198   6.514   9.473   9.854
28064SOL    HW186199   6.529   9.562   9.823
28064SOL    HW286200   6.557   9.469   9.939
28065SOL     OW86201   7.528   9.273   4.081
28065SOL    HW186202   7.457   9.211   4.063
28065SOL    HW286203   7.608   9.223   4.062
28066SOL     OW86204   2.010   6.214   2.033
28066SOL    HW186205   1.965   6.282   1.983
28066SOL    HW286206   2.092   6.199   1.985
28067SOL     OW86207   1.717  10.890   3.743
28067SOL    HW186208   1.779  10.921   3.677
28067SOL    HW286209   1.684  10.970   3.784
28068SOL     OW86210   4.327   5.607   1.496
28068SOL    HW186211   4.401   5.668   1.490
28068SOL    HW286212   4.348   5.538   1.432
28069SOL     OW86213   8.581   7.216   5.894
28069SOL    HW186214   8.528   7.197   5.816
28069SOL    HW286215   8.553   7.151   5.958
28070SOL     OW86216   4.770  10.867   1.080
28070SOL    HW186217   4.808  10.780   1.068
28070SOL    HW286218   4.811  10.920   1.012
28071SOL     OW86219   7.152   6.288   9.480
28071SOL    HW186220   7.169   6.198   9.509
28071SOL    HW286221   7.236   6.333   9.492
28072SOL     OW86222   0.760   0.098   4.834
28072SOL    HW186223   0.741   0.152   4.757
28072SOL    HW286224   0.694   0.029   4.832
28073SOL     OW86225   1.409   6.671   6.974
28073SOL    HW186226   1.432   6.591   6.926
28073SOL    HW286227   1.450   6.660   7.059
28074SOL     OW86228   4.630   0.736   2.299
28074SOL    HW186229   4.641   0.827   2.325
28074SOL    HW286230   4.541   0.731   2.265
28075SOL     OW86231   2.392   4.167   3.198
28075SOL    HW186232   2.476   4.157   3.242
28075SOL    HW286233   2.332   4.110   3.247
28076SOL     OW86234   8.222   9.138  10.691
28076SOL    HW186235   8.253   9.172  10.775
28076SOL    HW286236   8.216   9.043  10.704
28077SOL     OW86237   2.583   7.823   1.333
28077SOL    HW186238   2.531   7.760   1.383
28077SOL    HW286239   2.573   7.794   1.242
28078SOL     OW86240   4.162   9.764  11.049
28078SOL    HW186241   4.216   9.686  11.037
28078SOL    HW286242   4.107   9.767  10.971
28079SOL     OW86243   9.703   9.769   7.640
28079SOL    HW186244   9.772   9.829   7.668
28079SOL    HW286245   9.705   9.698   7.704
28080SOL     OW86246   7.392   0.058   5.780
28080SOL    HW186247   7.357   0.089   5.863
28080SOL    HW286248   7.486   0.077   5.785
28081SOL     OW86249   9.794   4.467   4.783
28081SOL    HW186250   9.755   4.469   4.695
28081SOL    HW286251   9.888   4.471   4.767
28082SOL     OW86252   7.278   0.590   8.004
28082SOL    HW186253   7.344   0.534   8.045
28082SOL    HW286254   7.234   0.633   8.077
28083SOL     OW86255   6.878  10.752   4.333
28083SOL    HW186256   6.948  10.707   4.380
28083SOL    HW286257   6.906  10.751   4.241
28084SOL     OW86258   1.561  11.026   2.993
28084SOL    HW186259   1.633  11.089   2.993
28084SOL    HW286260   1.576  10.972   3.070
28085SOL     OW86261   5.609   9.798   0.767
28085SOL    HW186262   5.614   9.870   0.704
28085SOL    HW286263   5.656   9.829   0.844
28086SOL     OW86264   0.189  10.760   6.270
28086SOL    HW186265   0.159  10.744   6.359
28086SOL    HW286266   0.171  10.678   6.223
28087SOL     OW86267   3.651   8.115  10.712
28087SOL    HW186268   3.648   8.210  10.724
28087SOL    HW286269   3.667   8.079  10.799
28088SOL     OW86270  10.385   4.698   1.612
28088SOL    HW186271  10.471   4.735   1.590
28088SOL    HW286272  10.329   4.720   1.537
28089SOL     OW86273   3.818  11.022   4.718
28089SOL    HW186274   3.837  10.944   4.666
28089SOL    HW286275   3.842  10.997   4.807
28090SOL     OW86276   7.707   7.801   0.117
28090SOL    HW186277   7.714   7.790   0.022
28090SOL    HW286278   7.618   7.773   0.138
28091SOL     OW86279   7.109   8.253   7.011
28091SOL    HW186280   7.055   8.230   6.935
28091SOL    HW286281   7.106   8.348   7.014
28092SOL     OW86282   1.806   1.791   3.370
28092SOL    HW186283   1.847   1.733   3.306
28092SOL    HW286284   1.879   1.828   3.419
28093SOL     OW86285   7.793  10.718   4.966
28093SOL    HW186286   7.833  10.778   4.903
28093SOL    HW286287   7.751  10.651   4.912
28094SOL     OW86288   7.456   5.463   3.742
28094SOL    HW186289   7.361   5.470   3.750
28094SOL    HW286290   7.470   5.377   3.701
28095SOL     OW86291   3.466   8.938   1.408
28095SOL    HW186292   3.483   8.884   1.485
28095SOL    HW286293   3.388   8.989   1.431
28096SOL     OW86294   4.266   0.660   6.949
28096SOL    HW186295   4.304   0.670   7.036
28096SOL    HW286296   4.205   0.733   6.941
28097SOL     OW86297   6.432  10.601   4.875
28097SOL    HW186298   6.466  10.690   4.885
28097SOL    HW286299   6.374  10.606   4.799
28098SOL     OW86300   6.385   8.438   1.827
28098SOL    HW186301   6.477   8.425   1.851
28098SOL    HW286302   6.384   8.521   1.779
28099SOL     OW86303   7.628   7.041   4.752
28099SOL    HW186304   7.567   7.092   4.804
28099SOL    HW286305   7.575   6.968   4.719
28100SOL     OW86306   5.075   0.847   5.879
28100SOL    HW186307   5.147   0.790   5.907
28100SOL    HW286308   5.033   0.799   5.807
28101SOL     OW86309   3.237   8.409   4.570
28101SOL    HW186310   3.286   8.328   4.556
28101SOL    HW286311   3.168   8.385   4.632
28102SOL     OW86312   7.375   8.679   4.340
28102SOL    HW186313   7.400   8.694   4.248
28102SOL    HW286314   7.365   8.584   4.347
28103SOL     OW86315   7.626   2.578   0.460
28103SOL    HW186316   7.713   2.538   0.466
28103SOL    HW286317   7.567   2.512   0.496
28104SOL     OW86318   8.902   5.599   7.581
28104SOL    HW186319   8.896   5.657   7.657
28104SOL    HW286320   8.968   5.534   7.605
28105SOL     OW86321   8.193   8.483   1.943
28105SOL    HW186322   8.145   8.563   1.924
28105SOL    HW286323   8.151   8.417   1.888
28106SOL     OW86324   6.400   6.622   1.978
28106SOL    HW186325   6.485   6.620   2.023
28106SOL    HW286326   6.353   6.545   2.011
28107SOL     OW86327   0.274   5.588   1.537
28107SOL    HW186328   0.238   5.559   1.620
28107SOL    HW286329   0.367   5.565   1.541
28108SOL     OW86330   8.739   8.914   7.521
28108SOL    HW186331   8.805   8.936   7.455
28108SOL    HW286332   8.678   8.856   7.475
28109SOL     OW86333   4.524   8.407   8.596
28109SOL    HW186334   4.460   8.346   8.632
28109SOL    HW286335   4.603   8.392   8.648
28110SOL     OW86336   0.481   8.751   8.303
28110SOL    HW186337   0.448   8.763   8.392
28110SOL    HW286338   0.403   8.748   8.248
28111SOL     OW86339   7.246   1.120  10.923
28111SOL    HW186340   7.321   1.149  10.975
28111SOL    HW286341   7.262   1.157  10.836
28112SOL     OW86342   9.698   7.470   3.317
28112SOL    HW186343   9.623   7.414   3.296
28112SOL    HW286344   9.720   7.448   3.407
28113SOL     OW86345   2.252   3.451   3.661
28113SOL    HW186346   2.207   3.497   3.731
28113SOL    HW286347   2.334   3.499   3.649
28114SOL     OW86348   0.198   8.015   5.937
28114SOL    HW186349   0.177   7.922   5.923
28114SOL    HW286350   0.262   8.036   5.869
28115SOL     OW86351   7.776   3.762   3.002
28115SOL    HW186352   7.705   3.702   2.978
28115SOL    HW286353   7.774   3.765   3.097
28116SOL     OW86354   2.487   3.392   2.579
28116SOL    HW186355   2.529   3.318   2.534
28116SOL    HW286356   2.555   3.459   2.582
28117SOL     OW86357   1.263   8.923   4.204
28117SOL    HW186358   1.314   8.953   4.129
28117SOL    HW286359   1.283   8.829   4.210
28118SOL     OW86360   3.532   9.218  11.025
28118SOL    HW186361   3.537   9.220  11.120
28118SOL    HW286362   3.588   9.144  10.999
28119SOL     OW86363   3.547   9.463   3.340
28119SOL    HW186364   3.614   9.457   3.408
28119SOL    HW286365   3.494   9.538   3.364
28120SOL     OW86366   4.781  10.088   3.636
28120SOL    HW186367   4.785  10.182   3.623
28120SOL    HW286368   4.703  10.074   3.689
28121SOL     OW86369   3.590   9.659   0.972
28121SOL    HW186370   3.631   9.724   1.029
28121SOL    HW286371   3.540   9.711   0.909
28122SOL     OW86372   9.198   8.607   2.130
28122SOL    HW186373   9.293   8.600   2.138
28122SOL    HW286374   9.164   8.557   2.204
28123SOL     OW86375   9.533   6.056   4.640
28123SOL    HW186376   9.541   6.151   4.649
28123SOL    HW286377   9.609   6.030   4.587
28124SOL     OW86378   7.675   2.791   7.628
28124SOL    HW186379   7.672   2.823   7.538
28124SOL    HW286380   7.584   2.793   7.657
28125SOL     OW86381   6.708   0.142   4.281
28125SOL    HW186382   6.767   0.088   4.229
28125SOL    HW286383   6.673   0.082   4.347
28126SOL     OW86384   4.424  10.769  11.012
28126SOL    HW186385   4.460  10.787  11.099
28126SOL    HW286386   4.448  10.678  10.994
28127SOL     OW86387   9.640   0.411   4.963
28127SOL    HW186388   9.587   0.396   4.884
28127SOL    HW286389   9.580   0.395   5.036
28128SOL     OW86390   2.030   4.492   4.134
28128SOL    HW186391   1.953   4.545   4.154
28128SOL    HW286392   2.070   4.535   4.058
28129SOL     OW86393   6.519   7.315   2.104
28129SOL    HW186394   6.568   7.390   2.136
28129SOL    HW286395   6.428   7.344   2.104
28130SOL     OW86396  10.271   7.564  10.690
28130SOL    HW186397  10.211   7.611  10.747
28130SOL    HW286398  10.268   7.611  10.607
28131SOL     OW86399   7.441   6.837   3.764
28131SOL    HW186400   7.534   6.819   3.752
28131SOL    HW286401   7.400   6.807   3.683
28132SOL     OW86402   1.558   1.636   0.831
28132SOL    HW186403   1.647   1.601   0.827
28132SOL    HW286404   1.506   1.563   0.865
28133SOL     OW86405   5.040   3.007   1.898
28133SOL    HW186406   4.965   2.997   1.839
28133SOL    HW286407   5.065   2.917   1.921
28134SOL     OW86408   5.685   7.369   2.010
28134SOL    HW186409   5.762   7.319   2.038
28134SOL    HW286410   5.642   7.312   1.945
28135SOL     OW86411   6.454   7.855   8.131
28135SOL    HW186412   6.531   7.811   8.167
28135SOL    HW286413   6.447   7.936   8.181
28136SOL     OW86414   7.380   2.225   4.429
28136SOL    HW186415   7.359   2.294   4.366
28136SOL    HW286416   7.321   2.240   4.502
28137SOL     OW86417   7.546   5.128   8.636
28137SOL    HW186418   7.461   5.085   8.639
28137SOL    HW286419   7.527   5.218   8.612
28138SOL     OW86420   5.835   9.967   3.020
28138SOL    HW186421   5.786   9.885   3.024
28138SOL    HW286422   5.918   9.947   3.064
28139SOL     OW86423   4.876   8.483   7.386
28139SOL    HW186424   4.787   8.466   7.355
28139SOL    HW286425   4.877   8.576   7.407
28140SOL     OW86426   5.932   1.796   2.426
28140SOL    HW186427   6.014   1.836   2.396
28140SOL    HW286428   5.882   1.868   2.464
28141SOL     OW86429   7.555   5.794   7.457
28141SOL    HW186430   7.461   5.793   7.473
28141SOL    HW286431   7.564   5.837   7.372
28142SOL     OW86432   3.090   2.273   7.283
28142SOL    HW186433   3.092   2.368   7.279
28142SOL    HW286434   3.090   2.245   7.191
28143SOL     OW86435   7.014   1.212  11.045
28143SOL    HW186436   7.022   1.290  10.990
28143SOL    HW286437   7.097   1.166  11.034
28144SOL     OW86438  10.103   0.717   6.120
28144SOL    HW186439  10.186   0.748   6.085
28144SOL    HW286440  10.074   0.786   6.178
28145SOL     OW86441   4.067   9.003   8.253
28145SOL    HW186442   4.120   9.037   8.324
28145SOL    HW286443   4.016   9.078   8.222
28146SOL     OW86444   0.095   6.405   1.361
28146SOL    HW186445   0.182   6.412   1.399
28146SOL    HW286446   0.110   6.371   1.272
28147SOL     OW86447  10.681   9.261   2.477
28147SOL    HW186448  10.677   9.226   2.388
28147SOL    HW286449  10.649   9.189   2.532
28148SOL     OW86450   3.784   0.060   8.209
28148SOL    HW186451   3.854   0.038   8.271
28148SOL    HW286452   3.795  -0.003   8.137
28149SOL     OW86453  10.499   4.704   0.678
28149SOL    HW186454  10.430   4.691   0.613
28149SOL    HW286455  10.570   4.745   0.629
28150SOL     OW86456   5.374   7.204   2.157
28150SOL    HW186457   5.360   7.169   2.245
28150SOL    HW286458   5.312   7.155   2.102
28151SOL     OW86459   0.079   7.517   1.354
28151SOL    HW186460   0.012   7.553   1.295
28151SOL    HW286461   0.070   7.567   1.434
28152SOL     OW86462   1.666   0.831   2.397
28152SOL    HW186463   1.675   0.735   2.393
28152SOL    HW286464   1.572   0.846   2.399
28153SOL     OW86465   8.752   9.145   6.796
28153SOL    HW186466   8.693   9.220   6.802
28153SOL    HW286467   8.813   9.156   6.868
28154SOL     OW86468   3.418   3.435   1.834
28154SOL    HW186469   3.400   3.521   1.870
28154SOL    HW286470   3.439   3.451   1.742
28155SOL     OW86471   5.717   9.004   1.335
28155SOL    HW186472   5.702   8.924   1.386
28155SOL    HW286473   5.694   8.979   1.245
28156SOL     OW86474   6.028   2.197   3.315
28156SOL    HW186475   6.040   2.177   3.408
28156SOL    HW286476   6.025   2.292   3.310
28157SOL     OW86477   3.378   5.780   5.356
28157SOL    HW186478   3.447   5.723   5.390
28157SOL    HW286479   3.408   5.868   5.376
28158SOL     OW86480   2.196  10.541   1.409
28158SOL    HW186481   2.205  10.624   1.362
28158SOL    HW286482   2.104  10.517   1.398
28159SOL     OW86483   0.283   8.408   2.092
28159SOL    HW186484   0.323   8.349   2.027
28159SOL    HW286485   0.340   8.485   2.093
28160SOL     OW86486   7.558   7.515   5.229
28160SOL    HW186487   7.534   7.533   5.138
28160SOL    HW286488   7.494   7.450   5.258
28161SOL     OW86489  10.497   7.390   5.237
28161SOL    HW186490  10.552   7.342   5.174
28161SOL    HW286491  10.453   7.456   5.184
28162SOL     OW86492   2.746   9.164   3.460
28162SOL    HW186493   2.651   9.171   3.466
28162SOL    HW286494   2.761   9.092   3.399
28163SOL     OW86495   9.084   4.066   2.294
28163SOL    HW186496   9.001   4.112   2.299
28163SOL    HW286497   9.149   4.129   2.325
28164SOL     OW86498   2.551   2.384  10.354
28164SOL    HW186499   2.561   2.436  10.433
28164SOL    HW286500   2.610   2.309  10.366
28165SOL     OW86501   4.852   3.449   0.547
28165SOL    HW186502   4.855   3.454   0.451
28165SOL    HW286503   4.818   3.534   0.574
28166SOL     OW86504   9.946  10.664   1.874
28166SOL    HW186505   9.984  10.691   1.790
28166SOL    HW286506   9.968  10.735   1.934
28167SOL     OW86507   0.309   9.122   3.221
28167SOL    HW186508   0.346   9.052   3.167
28167SOL    HW286509   0.232   9.082   3.262
28168SOL     OW86510   6.870   6.923   5.593
28168SOL    HW186511   6.954   6.968   5.605
28168SOL    HW286512   6.850   6.886   5.679
28169SOL     OW86513   2.701   3.466   0.585
28169SOL    HW186514   2.623   3.490   0.535
28169SOL    HW286515   2.774   3.478   0.523
28170SOL     OW86516   8.498   8.673   1.582
28170SOL    HW186517   8.559   8.747   1.582
28170SOL    HW286518   8.484   8.654   1.489
28171SOL     OW86519   9.056   6.111  10.601
28171SOL    HW186520   8.974   6.071  10.630
28171SOL    HW286521   9.052   6.108  10.505
28172SOL     OW86522   7.974   4.432   1.571
28172SOL    HW186523   7.988   4.510   1.624
28172SOL    HW286524   7.883   4.407   1.589
28173SOL     OW86525  10.727   6.290   3.250
28173SOL    HW186526  10.660   6.275   3.183
28173SOL    HW286527  10.685   6.266   3.332
28174SOL     OW86528   7.534   3.234   2.805
28174SOL    HW186529   7.477   3.158   2.815
28174SOL    HW286530   7.521   3.262   2.714
28175SOL     OW86531   3.425   6.276  10.482
28175SOL    HW186532   3.339   6.268  10.522
28175SOL    HW286533   3.408   6.310  10.394
28176SOL     OW86534   4.295   3.072   8.679
28176SOL    HW186535   4.267   3.153   8.721
28176SOL    HW286536   4.309   3.095   8.587
28177SOL     OW86537   3.853   8.449   7.083
28177SOL    HW186538   3.909   8.435   7.159
28177SOL    HW286539   3.818   8.362   7.063
28178SOL     OW86540   7.024   8.032   2.152
28178SOL    HW186541   6.944   8.055   2.106
28178SOL    HW286542   7.045   8.109   2.205
28179SOL     OW86543   3.734  10.645   1.134
28179SOL    HW186544   3.656  10.592   1.117
28179SOL    HW286545   3.705  10.714   1.194
28180SOL     OW86546   8.512   7.586   4.983
28180SOL    HW186547   8.548   7.555   5.066
28180SOL    HW286548   8.460   7.512   4.951
28181SOL     OW86549   6.430   0.050   8.779
28181SOL    HW186550   6.522   0.075   8.786
28181SOL    HW286551   6.390   0.083   8.859
28182SOL     OW86552   3.230   4.749   3.771
28182SOL    HW186553   3.208   4.829   3.723
28182SOL    HW286554   3.146   4.715   3.800
28183SOL     OW86555   4.375   8.394   4.905
28183SOL    HW186556   4.452   8.399   4.962
28183SOL    HW286557   4.408   8.356   4.823
28184SOL     OW86558   8.435   1.967   2.109
28184SOL    HW186559   8.383   2.026   2.054
28184SOL    HW286560   8.518   1.957   2.061
28185SOL     OW86561   0.415   4.686   7.420
28185SOL    HW186562   0.363   4.616   7.379
28185SOL    HW286563   0.498   4.685   7.372
28186SOL     OW86564  10.433   2.552   5.391
28186SOL    HW186565  10.460   2.480   5.448
28186SOL    HW286566  10.435   2.629   5.447
28187SOL     OW86567   5.390   8.113   9.309
28187SOL    HW186568   5.366   8.021   9.325
28187SOL    HW286569   5.384   8.123   9.214
28188SOL     OW86570   7.687   5.434   0.862
28188SOL    HW186571   7.697   5.427   0.767
28188SOL    HW286572   7.660   5.524   0.877
28189SOL     OW86573   2.470   8.656   4.606
28189SOL    HW186574   2.413   8.691   4.537
28189SOL    HW286575   2.501   8.572   4.571
28190SOL     OW86576  10.217   6.453  10.394
28190SOL    HW186577  10.282   6.452  10.323
28190SOL    HW286578  10.269   6.460  10.474
28191SOL     OW86579   9.329   9.042   6.771
28191SOL    HW186580   9.278   9.032   6.851
28191SOL    HW286581   9.285   9.112   6.723
28192SOL     OW86582   8.883   8.873   6.062
28192SOL    HW186583   8.863   8.782   6.086
28192SOL    HW286584   8.891   8.870   5.966
28193SOL     OW86585   8.697   9.125   2.452
28193SOL    HW186586   8.603   9.139   2.444
28193SOL    HW286587   8.723   9.176   2.529
28194SOL     OW86588  10.890   7.224   0.061
28194SOL    HW186589  10.855   7.181  -0.017
28194SOL    HW286590  10.982   7.196   0.065
28195SOL     OW86591   7.721   2.065   1.181
28195SOL    HW186592   7.628   2.068   1.201
28195SOL    HW286593   7.726   2.017   1.098
28196SOL     OW86594   4.745   0.655   1.643
28196SOL    HW186595   4.781   0.573   1.607
28196SOL    HW286596   4.821   0.702   1.675
28197SOL     OW86597   6.554   9.805   4.579
28197SOL    HW186598   6.632   9.825   4.527
28197SOL    HW286599   6.575   9.722   4.622
28198SOL     OW86600   5.755   0.465   1.133
28198SOL    HW186601   5.703   0.467   1.053
28198SOL    HW286602   5.711   0.401   1.189
28199SOL     OW86603   5.402  10.732   3.956
28199SOL    HW186604   5.431  10.819   3.927
28199SOL    HW286605   5.483  10.685   3.977
28200SOL     OW86606   1.644   7.550   7.096
28200SOL    HW186607   1.707   7.620   7.077
28200SOL    HW286608   1.559   7.593   7.096
28201SOL     OW86609  10.866   0.785   1.816
28201SOL    HW186610  10.924   0.757   1.887
28201SOL    HW286611  10.922   0.839   1.760
28202SOL     OW86612   2.222   8.924   9.824
28202SOL    HW186613   2.220   8.881   9.738
28202SOL    HW286614   2.162   8.997   9.815
28203SOL     OW86615   4.383   5.588   1.198
28203SOL    HW186616   4.322   5.637   1.143
28203SOL    HW286617   4.340   5.504   1.213
28204SOL     OW86618   6.831   8.860   2.650
28204SOL    HW186619   6.841   8.765   2.654
28204SOL    HW286620   6.842   8.881   2.557
28205SOL     OW86621   8.303  10.536   1.508
28205SOL    HW186622   8.229  10.497   1.462
28205SOL    HW286623   8.316  10.480   1.584
28206SOL     OW86624   5.290   1.087   6.407
28206SOL    HW186625   5.367   1.071   6.462
28206SOL    HW286626   5.242   1.004   6.408
28207SOL     OW86627   6.034   1.061   2.924
28207SOL    HW186628   5.978   1.025   2.992
28207SOL    HW286629   6.085   1.129   2.968
28208SOL     OW86630  10.303  10.508   8.924
28208SOL    HW186631  10.390  10.505   8.884
28208SOL    HW286632  10.319  10.502   9.018
28209SOL     OW86633   9.798   4.177   2.807
28209SOL    HW186634   9.779   4.220   2.724
28209SOL    HW286635   9.751   4.229   2.872
28210SOL     OW86636   2.073   9.046   2.814
28210SOL    HW186637   2.121   9.113   2.862
28210SOL    HW286638   2.078   8.968   2.869
28211SOL     OW86639   9.089   0.739   0.400
28211SOL    HW186640   9.035   0.786   0.336
28211SOL    HW286641   9.120   0.661   0.352
28212SOL     OW86642   6.084   2.265   8.164
28212SOL    HW186643   6.071   2.176   8.130
28212SOL    HW286644   6.094   2.319   8.086
28213SOL     OW86645   5.948   9.500   0.296
28213SOL    HW186646   5.865   9.513   0.340
28213SOL    HW286647   5.967   9.407   0.308
28214SOL     OW86648   4.421  10.895   9.580
28214SOL    HW186649   4.371  10.937   9.510
28214SOL    HW286650   4.376  10.812   9.596
28215SOL     OW86651   5.721   2.537   7.869
28215SOL    HW186652   5.658   2.561   7.936
28215SOL    HW286653   5.802   2.582   7.894
28216SOL     OW86654  10.769   0.270   4.099
28216SOL    HW186655  10.686   0.256   4.144
28216SOL    HW286656  10.745   0.275   4.006
28217SOL     OW86657   9.202   8.098   3.958
28217SOL    HW186658   9.199   8.154   3.880
28217SOL    HW286659   9.191   8.158   4.031
28218SOL     OW86660   1.991   2.004   2.486
28218SOL    HW186661   1.900   1.977   2.497
28218SOL    HW286662   2.037   1.923   2.461
28219SOL     OW86663   5.572   8.314   8.743
28219SOL    HW186664   5.581   8.379   8.812
28219SOL    HW286665   5.492   8.338   8.696
28220SOL     OW86666  10.302   4.194   9.426
28220SOL    HW186667  10.277   4.118   9.478
28220SOL    HW286668  10.226   4.252   9.429
28221SOL     OW86669   5.609   6.445   4.901
28221SOL    HW186670   5.586   6.382   4.832
28221SOL    HW286671   5.598   6.530   4.860
28222SOL     OW86672   1.003   2.571   0.423
28222SOL    HW186673   0.987   2.665   0.428
28222SOL    HW286674   1.094   2.564   0.394
28223SOL     OW86675   5.869   5.137   3.354
28223SOL    HW186676   5.918   5.056   3.339
28223SOL    HW286677   5.779   5.108   3.366
28224SOL     OW86678  10.708   5.533  10.299
28224SOL    HW186679  10.661   5.524  10.216
28224SOL    HW286680  10.783   5.589  10.278
28225SOL     OW86681   1.765   6.679   8.794
28225SOL    HW186682   1.851   6.670   8.835
28225SOL    HW286683   1.705   6.696   8.867
28226SOL     OW86684   5.252   9.979   1.814
28226SOL    HW186685   5.176   9.921   1.824
28226SOL    HW286686   5.224  10.063   1.850
28227SOL     OW86687   2.312   8.614   2.746
28227SOL    HW186688   2.316   8.616   2.650
28227SOL    HW286689   2.246   8.547   2.766
28228SOL     OW86690   1.256   6.514  10.561
28228SOL    HW186691   1.274   6.491  10.470
28228SOL    HW286692   1.323   6.468  10.611
28229SOL     OW86693   5.762   9.784   7.041
28229SOL    HW186694   5.804   9.822   7.118
28229SOL    HW286695   5.790   9.692   7.041
28230SOL     OW86696   1.356   0.664   5.470
28230SOL    HW186697   1.264   0.659   5.494
28230SOL    HW286698   1.361   0.736   5.407
28231SOL     OW86699   3.018   9.275   4.211
28231SOL    HW186700   2.992   9.197   4.260
28231SOL    HW286701   3.022   9.245   4.120
28232SOL     OW86702   0.128   6.917   9.778
28232SOL    HW186703   0.077   6.991   9.811
28232SOL    HW286704   0.072   6.840   9.793
28233SOL     OW86705   1.101   9.406   5.615
28233SOL    HW186706   1.008   9.405   5.591
28233SOL    HW286707   1.102   9.431   5.707
28234SOL     OW86708   0.283   9.775   5.521
28234SOL    HW186709   0.234   9.700   5.555
28234SOL    HW286710   0.372   9.763   5.554
28235SOL     OW86711   7.410   0.362   3.789
28235SOL    HW186712   7.456   0.382   3.870
28235SOL    HW286713   7.480   0.347   3.725
28236SOL     OW86714   3.873   8.422   6.336
28236SOL    HW186715   3.903   8.341   6.377
28236SOL    HW286716   3.947   8.450   6.282
28237SOL     OW86717   3.119   8.617   4.005
28237SOL    HW186718   3.162   8.539   4.040
28237SOL    HW286719   3.104   8.673   4.081
28238SOL     OW86720   9.717   3.704   6.530
28238SOL    HW186721   9.723   3.610   6.550
28238SOL    HW286722   9.676   3.706   6.443
28239SOL     OW86723   1.140   9.190   8.272
28239SOL    HW186724   1.168   9.148   8.190
28239SOL    HW286725   1.149   9.121   8.338
28240SOL     OW86726  10.847   8.784   8.182
28240SOL    HW186727  10.802   8.817   8.259
28240SOL    HW286728  10.807   8.830   8.109
28241SOL     OW86729   8.948  10.154   2.289
28241SOL    HW186730   9.016  10.206   2.332
28241SOL    HW286731   8.973  10.063   2.307
28242SOL     OW86732   9.779  10.026  10.363
28242SOL    HW186733   9.733   9.942  10.354
28242SOL    HW286734   9.717  10.091  10.330
28243SOL     OW86735  10.197   9.729   5.073
28243SOL    HW186736  10.199   9.807   5.128
28243SOL    HW286737  10.113   9.687   5.093
28244SOL     OW86738   6.384   7.633   0.925
28244SOL    HW186739   6.336   7.619   0.843
28244SOL    HW286740   6.345   7.571   0.987
28245SOL     OW86741   9.908   0.773   9.585
28245SOL    HW186742   9.963   0.697   9.607
28245SOL    HW286743   9.964   0.828   9.530
28246SOL     OW86744   2.698   0.145   7.753
28246SOL    HW186745   2.752   0.162   7.675
28246SOL    HW286746   2.618   0.105   7.718
28247SOL     OW86747   4.287   8.174   8.409
28247SOL    HW186748   4.235   8.208   8.336
28247SOL    HW286749   4.255   8.221   8.485
28248SOL     OW86750   6.703   0.181   2.864
28248SOL    HW186751   6.747   0.142   2.788
28248SOL    HW286752   6.626   0.223   2.827
28249SOL     OW86753   9.905   1.679   4.586
28249SOL    HW186754   9.940   1.709   4.502
28249SOL    HW286755   9.812   1.700   4.582
28250SOL     OW86756   3.229   9.544  10.949
28250SOL    HW186757   3.257   9.592  11.026
28250SOL    HW286758   3.267   9.592  10.875
28251SOL     OW86759   7.684   6.866   1.448
28251SOL    HW186760   7.671   6.771   1.440
28251SOL    HW286761   7.722   6.891   1.364
28252SOL     OW86762   7.448   2.587  10.012
28252SOL    HW186763   7.441   2.682  10.018
28252SOL    HW286764   7.435   2.568   9.919
28253SOL     OW86765  10.757   8.232   7.823
28253SOL    HW186766  10.783   8.211   7.912
28253SOL    HW286767  10.661   8.228   7.824
28254SOL     OW86768   2.207  10.417   6.715
28254SOL    HW186769   2.202  10.504   6.675
28254SOL    HW286770   2.189  10.432   6.808
28255SOL     OW86771   8.758  10.236   0.621
28255SOL    HW186772   8.688  10.284   0.665
28255SOL    HW286773   8.812  10.201   0.691
28256SOL     OW86774   8.597   6.158   4.086
28256SOL    HW186775   8.525   6.103   4.115
28256SOL    HW286776   8.562   6.206   4.011
28257SOL     OW86777   4.792   1.554   5.871
28257SOL    HW186778   4.791   1.487   5.802
28257SOL    HW286779   4.716   1.609   5.851
28258SOL     OW86780   2.867   8.863   5.937
28258SOL    HW186781   2.865   8.782   5.988
28258SOL    HW286782   2.777   8.896   5.941
28259SOL     OW86783   8.124   0.609   7.700
28259SOL    HW186784   8.212   0.590   7.666
28259SOL    HW286785   8.139   0.644   7.787
28260SOL     OW86786   8.294   5.422   0.475
28260SOL    HW186787   8.375   5.374   0.458
28260SOL    HW286788   8.321   5.513   0.481
28261SOL     OW86789   0.241   4.912   6.841
28261SOL    HW186790   0.309   4.855   6.876
28261SOL    HW286791   0.215   4.870   6.758
28262SOL     OW86792   6.258   4.409  10.146
28262SOL    HW186793   6.255   4.319  10.113
28262SOL    HW286794   6.351   4.433  10.140
28263SOL     OW86795   4.508   8.682   0.052
28263SOL    HW186796   4.449   8.718  -0.014
28263SOL    HW286797   4.544   8.603   0.011
28264SOL     OW86798   7.768  10.128   5.111
28264SOL    HW186799   7.789  10.075   5.188
28264SOL    HW286800   7.681  10.098   5.084
28265SOL     OW86801  10.087  10.108   0.881
28265SOL    HW186802  10.179  10.125   0.902
28265SOL    HW286803  10.067  10.026   0.926
28266SOL     OW86804   6.636   9.813   5.598
28266SOL    HW186805   6.600   9.768   5.521
28266SOL    HW286806   6.567   9.872   5.625
28267SOL     OW86807   1.669   3.360   3.247
28267SOL    HW186808   1.682   3.448   3.213
28267SOL    HW286809   1.698   3.303   3.175
28268SOL     OW86810   2.955  11.024   9.509
28268SOL    HW186811   2.927  11.038   9.599
28268SOL    HW286812   2.988  10.934   9.508
28269SOL     OW86813   7.970   2.052   7.124
28269SOL    HW186814   7.951   2.145   7.126
28269SOL    HW286815   7.887   2.010   7.147
28270SOL     OW86816   2.866   7.946   3.372
28270SOL    HW186817   2.845   7.852   3.366
28270SOL    HW286818   2.875   7.963   3.465
28271SOL     OW86819   9.175   8.285   4.535
28271SOL    HW186820   9.161   8.213   4.472
28271SOL    HW286821   9.248   8.335   4.498
28272SOL     OW86822   0.624   9.492   1.799
28272SOL    HW186823   0.634   9.514   1.891
28272SOL    HW286824   0.537   9.453   1.792
28273SOL     OW86825   4.404   3.400   6.212
28273SOL    HW186826   4.463   3.422   6.139
28273SOL    HW286827   4.326   3.365   6.169
28274SOL     OW86828   9.988   9.593   9.338
28274SOL    HW186829   9.898   9.606   9.307
28274SOL    HW286830  10.031   9.677   9.322
28275SOL     OW86831   8.271   0.821   5.267
28275SOL    HW186832   8.362   0.849   5.268
28275SOL    HW286833   8.273   0.734   5.308
28276SOL     OW86834  11.022  10.445   7.099
28276SOL    HW186835  10.931  10.447   7.129
28276SOL    HW286836  11.057  10.531   7.123
28277SOL     OW86837   4.523   9.677   4.069
28277SOL    HW186838   4.598   9.636   4.112
28277SOL    HW286839   4.560   9.753   4.024
28278SOL     OW86840   6.049   0.018   6.448
28278SOL    HW186841   6.088   0.102   6.470
28278SOL    HW286842   5.997   0.035   6.369
28279SOL     OW86843   5.983   3.651   0.036
28279SOL    HW186844   6.011   3.602  -0.041
28279SOL    HW286845   6.057   3.645   0.097
28280SOL     OW86846   1.584   8.023   5.091
28280SOL    HW186847   1.513   7.989   5.036
28280SOL    HW286848   1.540   8.078   5.156
28281SOL     OW86849   2.337  11.080   5.258
28281SOL    HW186850   2.412  11.096   5.315
28281SOL    HW286851   2.345  11.146   5.188
28282SOL     OW86852   8.077  10.254   8.596
28282SOL    HW186853   8.010  10.217   8.538
28282SOL    HW286854   8.127  10.178   8.626
28283SOL     OW86855  10.657   1.636   1.208
28283SOL    HW186856  10.728   1.669   1.263
28283SOL    HW286857  10.614   1.714   1.174
28284SOL     OW86858   1.088   7.978   2.623
28284SOL    HW186859   1.043   8.062   2.624
28284SOL    HW286860   1.176   7.997   2.656
28285SOL     OW86861   4.958   8.790   5.123
28285SOL    HW186862   4.864   8.802   5.109
28285SOL    HW286863   4.983   8.858   5.185
28286SOL     OW86864   5.439   2.281   2.783
28286SOL    HW186865   5.484   2.303   2.701
28286SOL    HW286866   5.394   2.198   2.764
28287SOL     OW86867   9.020   9.415   6.380
28287SOL    HW186868   9.051   9.409   6.289
28287SOL    HW286869   8.946   9.354   6.384
28288SOL     OW86870   6.336   3.979   8.951
28288SOL    HW186871   6.407   3.996   9.013
28288SOL    HW286872   6.336   3.884   8.940
28289SOL     OW86873   7.262  10.976   6.389
28289SOL    HW186874   7.240  11.025   6.310
28289SOL    HW286875   7.266  11.042   6.458
28290SOL     OW86876   5.522   6.575   7.165
28290SOL    HW186877   5.538   6.528   7.083
28290SOL    HW286878   5.428   6.569   7.178
28291SOL     OW86879   9.245   7.913   4.899
28291SOL    HW186880   9.197   7.861   4.963
28291SOL    HW286881   9.181   7.977   4.868
28292SOL     OW86882   5.728   0.904   3.922
28292SOL    HW186883   5.719   0.989   3.965
28292SOL    HW286884   5.676   0.912   3.842
28293SOL     OW86885   3.788  10.016  10.127
28293SOL    HW186886   3.787   9.920  10.123
28293SOL    HW286887   3.857  10.037  10.190
28294SOL     OW86888   9.802   6.977  10.919
28294SOL    HW186889   9.765   7.018  10.997
28294SOL    HW286890   9.880   6.931  10.950
28295SOL     OW86891   3.883   9.499   4.948
28295SOL    HW186892   3.920   9.452   4.872
28295SOL    HW286893   3.953   9.557   4.977
28296SOL     OW86894   5.233   6.808   7.088
28296SOL    HW186895   5.160   6.860   7.119
28296SOL    HW286896   5.226   6.726   7.137
28297SOL     OW86897   6.703   7.712  10.902
28297SOL    HW186898   6.784   7.667  10.876
28297SOL    HW286899   6.687   7.682  10.991
28298SOL     OW86900   3.631   4.761  10.363
28298SOL    HW186901   3.540   4.732  10.359
28298SOL    HW286902   3.663   4.753  10.273
28299SOL     OW86903   3.546  10.271   1.822
28299SOL    HW186904   3.622  10.223   1.788
28299SOL    HW286905   3.564  10.282   1.915
28300SOL     OW86906   7.285  10.013   9.680
28300SOL    HW186907   7.323  10.083   9.733
28300SOL    HW286908   7.353   9.990   9.617
28301SOL     OW86909   6.713  10.391   9.366
28301SOL    HW186910   6.635  10.446   9.371
28301SOL    HW286911   6.733  10.387   9.272
28302SOL     OW86912   3.158  10.023   8.402
28302SOL    HW186913   3.094   9.955   8.381
28302SOL    HW286914   3.108  10.104   8.403
28303SOL     OW86915  10.284  10.397   5.985
28303SOL    HW186916  10.230  10.367   5.912
28303SOL    HW286917  10.226  10.393   6.061
28304SOL     OW86918   7.438   9.221   5.567
28304SOL    HW186919   7.399   9.280   5.502
28304SOL    HW286920   7.363   9.178   5.608
28305SOL     OW86921   2.364   2.558   3.768
28305SOL    HW186922   2.300   2.620   3.802
28305SOL    HW286923   2.312   2.484   3.736
28306SOL     OW86924  10.356   0.488   4.350
28306SOL    HW186925  10.311   0.518   4.271
28306SOL    HW286926  10.436   0.540   4.354
28307SOL     OW86927  10.675   4.779   5.026
28307SOL    HW186928  10.723   4.861   5.011
28307SOL    HW286929  10.617   4.797   5.099
28308SOL     OW86930   6.459   4.674   7.633
28308SOL    HW186931   6.515   4.736   7.586
28308SOL    HW286932   6.374   4.717   7.639
28309SOL     OW86933   8.886  10.879   4.162
28309SOL    HW186934   8.908  10.854   4.251
28309SOL    HW286935   8.939  10.821   4.107
28310SOL     OW86936   5.816  10.639   4.593
28310SOL    HW186937   5.722  10.642   4.610
28310SOL    HW286938   5.841  10.731   4.581
28311SOL     OW86939   9.857   3.295  10.184
28311SOL    HW186940   9.796   3.227  10.212
28311SOL    HW286941   9.812   3.339  10.112
28312SOL     OW86942   4.187   1.413   0.917
28312SOL    HW186943   4.189   1.476   0.845
28312SOL    HW286944   4.229   1.334   0.881
28313SOL     OW86945   5.698   0.855   5.588
28313SOL    HW186946   5.735   0.772   5.618
28313SOL    HW286947   5.765   0.920   5.608
28314SOL     OW86948  10.359  10.287   7.073
28314SOL    HW186949  10.317  10.323   6.995
28314SOL    HW286950  10.297  10.222   7.106
28315SOL     OW86951   3.096   6.008   3.973
28315SOL    HW186952   3.080   6.002   3.879
28315SOL    HW286953   3.162   5.940   3.990
28316SOL     OW86954   7.956   8.039   5.069
28316SOL    HW186955   7.889   7.981   5.105
28316SOL    HW286956   7.965   8.011   4.978
28317SOL     OW86957   5.256   7.867   9.311
28317SOL    HW186958   5.207   7.807   9.254
28317SOL    HW286959   5.262   7.821   9.394
28318SOL     OW86960   4.557  10.811   0.148
28318SOL    HW186961   4.536  10.763   0.229
28318SOL    HW286962   4.558  10.903   0.175
28319SOL     OW86963   1.799   1.356   9.238
28319SOL    HW186964   1.834   1.288   9.296
28319SOL    HW286965   1.721   1.316   9.199
28320SOL     OW86966   0.852   7.320   1.575
28320SOL    HW186967   0.757   7.322   1.587
28320SOL    HW286968   0.864   7.330   1.480
28321SOL     OW86969   8.599   9.099   0.539
28321SOL    HW186970   8.613   9.158   0.465
28321SOL    HW286971   8.607   9.011   0.501
28322SOL     OW86972   8.725   5.786   1.713
28322SOL    HW186973   8.670   5.714   1.744
28322SOL    HW286974   8.724   5.777   1.617
28323SOL     OW86975   9.751   9.977   0.461
28323SOL    HW186976   9.676   9.919   0.475
28323SOL    HW286977   9.725  10.059   0.501
28324SOL     OW86978   7.240   9.110   2.655
28324SOL    HW186979   7.218   9.068   2.738
28324SOL    HW286980   7.167   9.087   2.597
28325SOL     OW86981   5.980   9.876   6.901
28325SOL    HW186982   5.895   9.904   6.934
28325SOL    HW286983   6.010   9.948   6.845
28326SOL     OW86984   7.563   3.243   9.059
28326SOL    HW186985   7.509   3.315   9.027
28326SOL    HW286986   7.631   3.285   9.112
28327SOL     OW86987   9.563   0.607  10.024
28327SOL    HW186988   9.545   0.655   9.943
28327SOL    HW286989   9.543   0.669  10.094
28328SOL     OW86990   6.094   7.648   7.255
28328SOL    HW186991   6.122   7.664   7.345
28328SOL    HW286992   6.160   7.588   7.219
28329SOL     OW86993   7.643  10.949   8.806
28329SOL    HW186994   7.664  10.967   8.714
28329SOL    HW286995   7.598  11.028   8.836
28330SOL     OW86996   0.134   2.400   4.282
28330SOL    HW186997   0.182   2.482   4.285
28330SOL    HW286998   0.042   2.425   4.290
28331SOL     OW86999   7.839  10.903   7.380
28331SOL    HW187000   7.751  10.923   7.412
28331SOL    HW287001   7.853  10.965   7.308
28332SOL     OW87002   0.954   7.440   7.016
28332SOL    HW187003   0.979   7.457   6.925
28332SOL    HW287004   0.860   7.425   7.012
28333SOL     OW87005   3.170   4.552   7.597
28333SOL    HW187006   3.112   4.543   7.672
28333SOL    HW287007   3.168   4.466   7.555
28334SOL     OW87008   4.361   0.076   3.392
28334SOL    HW187009   4.410   0.006   3.435
28334SOL    HW287010   4.419   0.106   3.322
28335SOL     OW87011   0.585   9.563   3.689
28335SOL    HW187012   0.616   9.648   3.658
28335SOL    HW287013   0.490   9.573   3.698
28336SOL     OW87014   9.189   9.491   1.160
28336SOL    HW187015   9.174   9.573   1.113
28336SOL    HW287016   9.129   9.428   1.119
28337SOL     OW87017   3.539   9.391  10.741
28337SOL    HW187018   3.469   9.349  10.691
28337SOL    HW287019   3.526   9.360  10.830
28338SOL     OW87020  10.348   6.626   0.346
28338SOL    HW187021  10.384   6.537   0.340
28338SOL    HW287022  10.395   6.666   0.419
28339SOL     OW87023   1.632   7.822   9.882
28339SOL    HW187024   1.717   7.793   9.915
28339SOL    HW287025   1.570   7.799   9.951
28340SOL     OW87026   3.652   4.037   6.275
28340SOL    HW187027   3.653   4.059   6.368
28340SOL    HW287028   3.608   3.952   6.271
28341SOL     OW87029   4.022   7.997   3.120
28341SOL    HW187030   3.963   8.042   3.180
28341SOL    HW287031   3.964   7.960   3.053
28342SOL     OW87032   3.740   9.652   1.553
28342SOL    HW187033   3.810   9.621   1.495
28342SOL    HW287034   3.662   9.606   1.522
28343SOL     OW87035  10.713   8.889   3.787
28343SOL    HW187036  10.676   8.947   3.853
28343SOL    HW287037  10.724   8.944   3.709
28344SOL     OW87038   6.600   8.246   4.668
28344SOL    HW187039   6.674   8.185   4.665
28344SOL    HW287040   6.555   8.233   4.584
28345SOL     OW87041   3.769   1.301   2.836
28345SOL    HW187042   3.800   1.366   2.898
28345SOL    HW287043   3.675   1.295   2.852
28346SOL     OW87044   6.897   0.542   6.637
28346SOL    HW187045   6.827   0.605   6.653
28346SOL    HW287046   6.892   0.482   6.711
28347SOL     OW87047   5.639   1.760   0.424
28347SOL    HW187048   5.726   1.757   0.464
28347SOL    HW287049   5.592   1.827   0.474
28348SOL     OW87050   7.022   8.081   5.780
28348SOL    HW187051   7.014   8.135   5.701
28348SOL    HW287052   6.965   8.122   5.844
28349SOL     OW87053   7.463   9.175   1.270
28349SOL    HW187054   7.394   9.116   1.300
28349SOL    HW287055   7.418   9.239   1.215
28350SOL     OW87056   3.200   8.657   1.798
28350SOL    HW187057   3.204   8.728   1.861
28350SOL    HW287058   3.203   8.577   1.851
28351SOL     OW87059   4.426   6.489   5.126
28351SOL    HW187060   4.518   6.496   5.099
28351SOL    HW287061   4.379   6.547   5.066
28352SOL     OW87062   6.984   0.908   1.157
28352SOL    HW187063   6.999   0.925   1.064
28352SOL    HW287064   6.973   0.813   1.161
28353SOL     OW87065   9.172   8.472   0.423
28353SOL    HW187066   9.152   8.508   0.337
28353SOL    HW287067   9.240   8.529   0.458
28354SOL     OW87068   6.100   6.691   5.375
28354SOL    HW187069   6.059   6.632   5.438
28354SOL    HW287070   6.186   6.651   5.358
28355SOL     OW87071   1.335   8.685   4.080
28355SOL    HW187072   1.309   8.605   4.034
28355SOL    HW287073   1.427   8.670   4.103
28356SOL     OW87074   3.058   1.460   6.544
28356SOL    HW187075   3.138   1.472   6.595
28356SOL    HW287076   3.088   1.439   6.455
28357SOL     OW87077   0.591   6.910   3.710
28357SOL    HW187078   0.518   6.868   3.756
28357SOL    HW287079   0.666   6.899   3.768
28358SOL     OW87080   7.584   5.267   6.826
28358SOL    HW187081   7.491   5.260   6.803
28358SOL    HW287082   7.611   5.177   6.844
28359SOL     OW87083   0.133   0.262   9.456
28359SOL    HW187084   0.150   0.345   9.412
28359SOL    HW287085   0.220   0.224   9.469
28360SOL     OW87086   3.467   7.287   3.668
28360SOL    HW187087   3.477   7.366   3.614
28360SOL    HW287088   3.396   7.308   3.728
28361SOL     OW87089   3.062   8.546   1.351
28361SOL    HW187090   3.145   8.499   1.355
28361SOL    HW287091   3.044   8.571   1.441
28362SOL     OW87092   1.594   2.916   3.221
28362SOL    HW187093   1.673   2.925   3.274
28362SOL    HW287094   1.625   2.878   3.139
28363SOL     OW87095   4.885   0.964   8.765
28363SOL    HW187096   4.838   0.883   8.787
28363SOL    HW287097   4.923   0.993   8.848
28364SOL     OW87098   1.557  10.318  10.711
28364SOL    HW187099   1.650  10.342  10.711
28364SOL    HW287100   1.556  10.224  10.691
28365SOL     OW87101   5.598   9.394   6.363
28365SOL    HW187102   5.550   9.406   6.445
28365SOL    HW287103   5.540   9.429   6.295
28366SOL     OW87104   4.303   4.198   6.002
28366SOL    HW187105   4.303   4.131   5.933
28366SOL    HW287106   4.247   4.162   6.070
28367SOL     OW87107   3.400   2.667   8.213
28367SOL    HW187108   3.451   2.593   8.246
28367SOL    HW287109   3.389   2.649   8.119
28368SOL     OW87110   9.709   5.049   0.333
28368SOL    HW187111   9.743   5.007   0.412
28368SOL    HW287112   9.784   5.097   0.297
28369SOL     OW87113   3.244   4.369   6.384
28369SOL    HW187114   3.319   4.314   6.362
28369SOL    HW287115   3.270   4.457   6.358
28370SOL     OW87116   4.882  10.577   9.398
28370SOL    HW187117   4.882  10.534   9.483
28370SOL    HW287118   4.817  10.529   9.346
28371SOL     OW87119   2.003   6.664   7.236
28371SOL    HW187120   2.078   6.692   7.288
28371SOL    HW287121   1.979   6.741   7.185
28372SOL     OW87122   8.528   0.486   3.764
28372SOL    HW187123   8.444   0.447   3.789
28372SOL    HW287124   8.515   0.580   3.773
28373SOL     OW87125   9.747   2.649   7.470
28373SOL    HW187126   9.768   2.683   7.383
28373SOL    HW287127   9.666   2.694   7.494
28374SOL     OW87128   0.405   9.328   1.795
28374SOL    HW187129   0.318   9.333   1.833
28374SOL    HW287130   0.404   9.248   1.741
28375SOL     OW87131   7.250   8.876   1.491
28375SOL    HW187132   7.337   8.895   1.527
28375SOL    HW287133   7.209   8.961   1.481
28376SOL     OW87134  10.357   6.535   3.371
28376SOL    HW187135  10.313   6.491   3.298
28376SOL    HW287136  10.289   6.546   3.437
28377SOL     OW87137   0.322  10.221   8.602
28377SOL    HW187138   0.413  10.251   8.598
28377SOL    HW287139   0.314  10.160   8.528
28378SOL     OW87140   4.066   7.883   4.630
28378SOL    HW187141   4.122   7.834   4.570
28378SOL    HW287142   4.000   7.820   4.658
28379SOL     OW87143   7.079  10.339   4.353
28379SOL    HW187144   6.997  10.333   4.303
28379SOL    HW287145   7.097  10.432   4.359
28380SOL     OW87146   6.480   5.426   6.884
28380SOL    HW187147   6.436   5.511   6.884
28380SOL    HW287148   6.511   5.415   6.794
28381SOL     OW87149   7.398   9.752   1.598
28381SOL    HW187150   7.373   9.830   1.549
28381SOL    HW287151   7.489   9.736   1.573
28382SOL     OW87152   7.052   0.649   1.055
28382SOL    HW187153   7.094   0.573   1.096
28382SOL    HW287154   7.008   0.613   0.978
28383SOL     OW87155   5.404   7.710   3.065
28383SOL    HW187156   5.328   7.666   3.027
28383SOL    HW287157   5.419   7.665   3.148
28384SOL     OW87158   3.715   5.312   8.956
28384SOL    HW187159   3.755   5.394   8.928
28384SOL    HW287160   3.746   5.299   9.045
28385SOL     OW87161   9.060   1.624   5.964
28385SOL    HW187162   9.047   1.664   5.878
28385SOL    HW287163   9.108   1.689   6.014
28386SOL     OW87164  10.414   1.936  10.685
28386SOL    HW187165  10.471   1.890  10.623
28386SOL    HW287166  10.435   2.028  10.673
28387SOL     OW87167   1.797  10.469   8.231
28387SOL    HW187168   1.838  10.553   8.252
28387SOL    HW287169   1.717  10.467   8.283
28388SOL     OW87170   7.652   7.437   3.405
28388SOL    HW187171   7.684   7.500   3.469
28388SOL    HW287172   7.582   7.390   3.450
28389SOL     OW87173   3.348   6.014   2.291
28389SOL    HW187174   3.420   6.052   2.241
28389SOL    HW287175   3.352   5.920   2.271
28390SOL     OW87176   4.500   1.949   4.420
28390SOL    HW187177   4.523   2.031   4.376
28390SOL    HW287178   4.434   1.909   4.363
28391SOL     OW87179   1.838   5.039   4.826
28391SOL    HW187180   1.854   5.084   4.743
28391SOL    HW287181   1.921   4.997   4.847
28392SOL     OW87182  10.163   8.745   4.083
28392SOL    HW187183  10.109   8.765   4.006
28392SOL    HW287184  10.132   8.805   4.150
28393SOL     OW87185   2.927   0.023   5.085
28393SOL    HW187186   2.989   0.095   5.091
28393SOL    HW287187   2.842   0.061   5.107
28394SOL     OW87188   6.108   7.711   5.837
28394SOL    HW187189   6.046   7.770   5.794
28394SOL    HW287190   6.125   7.643   5.771
28395SOL     OW87191   4.259  10.832   1.050
28395SOL    HW187192   4.249  10.821   1.144
28395SOL    HW287193   4.316  10.760   1.023
28396SOL     OW87194   4.226   9.613  10.319
28396SOL    HW187195   4.167   9.538  10.311
28396SOL    HW287196   4.170   9.689  10.306
28397SOL     OW87197   9.051   9.030   0.929
28397SOL    HW187198   9.138   8.990   0.936
28397SOL    HW287199   8.990   8.956   0.934
28398SOL     OW87200   5.931   9.228   7.398
28398SOL    HW187201   6.018   9.259   7.372
28398SOL    HW287202   5.901   9.290   7.463
28399SOL     OW87203   0.102   8.827   2.799
28399SOL    HW187204   0.028   8.829   2.738
28399SOL    HW287205   0.069   8.780   2.875
28400SOL     OW87206   0.916   3.713   5.992
28400SOL    HW187207   0.971   3.779   5.950
28400SOL    HW287208   0.859   3.682   5.921
28401SOL     OW87209   9.944   9.660   2.849
28401SOL    HW187210   9.855   9.686   2.874
28401SOL    HW287211   9.933   9.614   2.765
28402SOL     OW87212   6.075   9.926   3.164
28402SOL    HW187213   6.077   9.834   3.191
28402SOL    HW287214   6.152   9.935   3.107
28403SOL     OW87215   4.044   0.136   5.076
28403SOL    HW187216   3.997   0.158   4.995
28403SOL    HW287217   4.136   0.150   5.054
28404SOL     OW87218   3.269   6.407   2.237
28404SOL    HW187219   3.188   6.441   2.200
28404SOL    HW287220   3.245   6.321   2.272
28405SOL     OW87221   6.330   2.070   2.907
28405SOL    HW187222   6.371   2.145   2.949
28405SOL    HW287223   6.391   1.998   2.921
28406SOL     OW87224   6.434  10.314   4.504
28406SOL    HW187225   6.423  10.222   4.530
28406SOL    HW287226   6.435  10.311   4.408
28407SOL     OW87227   7.536   9.555   4.478
28407SOL    HW187228   7.464   9.598   4.523
28407SOL    HW287229   7.504   9.543   4.388
28408SOL     OW87230   3.658  10.028   3.083
28408SOL    HW187231   3.710  10.102   3.114
28408SOL    HW287232   3.568  10.051   3.105
28409SOL     OW87233   6.721   6.951   3.096
28409SOL    HW187234   6.786   6.967   3.164
28409SOL    HW287235   6.705   6.856   3.100
28410SOL     OW87236   3.744   0.729   0.026
28410SOL    HW187237   3.773   0.800  -0.031
28410SOL    HW287238   3.817   0.667   0.026
28411SOL     OW87239   7.930   8.051   2.876
28411SOL    HW187240   7.909   8.134   2.919
28411SOL    HW287241   8.026   8.051   2.868
28412SOL     OW87242   0.111   5.899   2.471
28412SOL    HW187243   0.030   5.895   2.522
28412SOL    HW287244   0.158   5.974   2.507
28413SOL     OW87245   2.485   8.578   5.991
28413SOL    HW187246   2.456   8.575   5.900
28413SOL    HW287247   2.568   8.531   5.991
28414SOL     OW87248   2.112   7.286   9.316
28414SOL    HW187249   2.197   7.284   9.360
28414SOL    HW287250   2.090   7.379   9.309
28415SOL     OW87251   8.525   7.669   7.313
28415SOL    HW187252   8.619   7.659   7.298
28415SOL    HW287253   8.489   7.581   7.297
28416SOL     OW87254   7.142   7.335   3.613
28416SOL    HW187255   7.125   7.349   3.520
28416SOL    HW287256   7.177   7.246   3.618
28417SOL     OW87257   6.176  10.193   4.728
28417SOL    HW187258   6.209  10.279   4.755
28417SOL    HW287259   6.082  10.196   4.745
28418SOL     OW87260   5.536   0.813   8.891
28418SOL    HW187261   5.460   0.780   8.843
28418SOL    HW287262   5.524   0.908   8.894
28419SOL     OW87263   3.117   7.435   1.233
28419SOL    HW187264   3.207   7.403   1.222
28419SOL    HW287265   3.119   7.524   1.198
28420SOL     OW87266   7.710   1.436   6.415
28420SOL    HW187267   7.767   1.501   6.454
28420SOL    HW287268   7.630   1.483   6.394
28421SOL     OW87269   2.964  10.381   0.145
28421SOL    HW187270   2.964  10.462   0.096
28421SOL    HW287271   2.977  10.408   0.236
28422SOL     OW87272   4.842   7.015   8.214
28422SOL    HW187273   4.821   7.023   8.121
28422SOL    HW287274   4.773   6.959   8.250
28423SOL     OW87275   7.360  10.815   6.563
28423SOL    HW187276   7.414  10.870   6.619
28423SOL    HW287277   7.332  10.873   6.492
28424SOL     OW87278   9.148  10.194   9.853
28424SOL    HW187279   9.232  10.229   9.882
28424SOL    HW287280   9.091  10.270   9.847
28425SOL     OW87281   0.618   3.575   7.282
28425SOL    HW187282   0.547   3.631   7.252
28425SOL    HW287283   0.675   3.633   7.333
28426SOL     OW87284   9.057   9.332   2.339
28426SOL    HW187285   9.033   9.313   2.248
28426SOL    HW287286   9.133   9.390   2.332
28427SOL     OW87287   4.404   7.704   7.079
28427SOL    HW187288   4.452   7.786   7.075
28427SOL    HW287289   4.445   7.649   7.012
28428SOL     OW87290   4.494   5.378   8.903
28428SOL    HW187291   4.513   5.322   8.978
28428SOL    HW287292   4.481   5.465   8.940
28429SOL     OW87293   8.392   5.293   7.848
28429SOL    HW187294   8.468   5.345   7.873
28429SOL    HW287295   8.360   5.334   7.767
28430SOL     OW87296  10.620   9.361   5.246
28430SOL    HW187297  10.634   9.395   5.157
28430SOL    HW287298  10.653   9.430   5.304
28431SOL     OW87299  10.604   8.333   8.363
28431SOL    HW187300  10.601   8.427   8.379
28431SOL    HW287301  10.514   8.309   8.342
28432SOL     OW87302   2.103   1.537   9.953
28432SOL    HW187303   2.073   1.578  10.034
28432SOL    HW287304   2.058   1.585   9.883
28433SOL     OW87305   6.992   0.270   3.899
28433SOL    HW187306   6.988   0.273   3.803
28433SOL    HW287307   7.008   0.360   3.925
28434SOL     OW87308   2.018   5.313  10.343
28434SOL    HW187309   1.976   5.347  10.264
28434SOL    HW287310   2.053   5.390  10.387
28435SOL     OW87311   3.733   1.846   5.008
28435SOL    HW187312   3.712   1.782   5.076
28435SOL    HW287313   3.816   1.814   4.971
28436SOL     OW87314   2.275   2.353   5.922
28436SOL    HW187315   2.352   2.335   5.868
28436SOL    HW287316   2.211   2.388   5.860
28437SOL     OW87317   9.021  10.840  10.938
28437SOL    HW187318   9.031  10.932  10.914
28437SOL    HW287319   9.110  10.809  10.953
28438SOL     OW87320   3.721   2.513   0.752
28438SOL    HW187321   3.735   2.607   0.754
28438SOL    HW287322   3.653   2.500   0.686
28439SOL     OW87323   6.419   5.233   0.594
28439SOL    HW187324   6.355   5.303   0.586
28439SOL    HW287325   6.387   5.178   0.666
28440SOL     OW87326   2.224   9.508   7.442
28440SOL    HW187327   2.177   9.591   7.447
28440SOL    HW287328   2.175   9.457   7.377
28441SOL     OW87329   7.335  10.720   8.881
28441SOL    HW187330   7.272  10.707   8.810
28441SOL    HW287331   7.345  10.815   8.887
28442SOL     OW87332   6.024  11.011   0.833
28442SOL    HW187333   6.000  11.020   0.740
28442SOL    HW287334   5.955  11.058   0.880
28443SOL     OW87335   6.016  10.027  10.361
28443SOL    HW187336   6.032  10.121  10.368
28443SOL    HW287337   6.076   9.987  10.424
28444SOL     OW87338   2.897   0.080   0.463
28444SOL    HW187339   2.893   0.174   0.480
28444SOL    HW287340   2.812   0.046   0.491
28445SOL     OW87341   6.762   7.038   3.729
28445SOL    HW187342   6.705   6.994   3.791
28445SOL    HW287343   6.710   7.044   3.649
28446SOL     OW87344   5.587   0.218   1.208
28446SOL    HW187345   5.515   0.270   1.242
28446SOL    HW287346   5.614   0.163   1.282
28447SOL     OW87347   7.792   2.488   7.472
28447SOL    HW187348   7.714   2.530   7.507
28447SOL    HW287349   7.796   2.517   7.381
28448SOL     OW87350   0.667   7.699   5.940
28448SOL    HW187351   0.709   7.639   5.878
28448SOL    HW287352   0.631   7.642   6.008
28449SOL     OW87353   4.226   2.140   8.815
28449SOL    HW187354   4.157   2.074   8.810
28449SOL    HW287355   4.193   2.213   8.762
28450SOL     OW87356   3.626   8.955   8.287
28450SOL    HW187357   3.652   8.877   8.238
28450SOL    HW287358   3.673   8.947   8.370
28451SOL     OW87359  10.594   0.901   5.309
28451SOL    HW187360  10.647   0.822   5.295
28451SOL    HW287361  10.580   0.936   5.221
28452SOL     OW87362   6.380   0.851  11.011
28452SOL    HW187363   6.420   0.917  11.067
28452SOL    HW287364   6.309   0.897  10.966
28453SOL     OW87365   8.539   0.763   0.208
28453SOL    HW187366   8.512   0.845   0.248
28453SOL    HW287367   8.495   0.761   0.123
28454SOL     OW87368   6.919   1.035   3.915
28454SOL    HW187369   6.977   1.078   3.852
28454SOL    HW287370   6.831   1.060   3.888
28455SOL     OW87371   3.960   4.806   3.089
28455SOL    HW187372   3.971   4.899   3.107
28455SOL    HW287373   4.032   4.763   3.136
28456SOL     OW87374   7.847   7.608   7.478
28456SOL    HW187375   7.880   7.519   7.494
28456SOL    HW287376   7.818   7.639   7.563
28457SOL     OW87377   6.374   1.218   6.942
28457SOL    HW187378   6.440   1.246   6.878
28457SOL    HW287379   6.419   1.153   6.996
28458SOL     OW87380   7.540   8.947   7.862
28458SOL    HW187381   7.613   8.994   7.821
28458SOL    HW287382   7.495   8.905   7.789
28459SOL     OW87383   6.662   2.483  10.735
28459SOL    HW187384   6.683   2.511  10.824
28459SOL    HW287385   6.738   2.509  10.682
28460SOL     OW87386   1.393   9.661   8.678
28460SOL    HW187387   1.388   9.712   8.597
28460SOL    HW287388   1.485   9.667   8.704
28461SOL     OW87389  10.303  10.317   5.309
28461SOL    HW187390  10.353  10.249   5.355
28461SOL    HW287391  10.348  10.399   5.330
28462SOL     OW87392   3.303   0.351   7.025
28462SOL    HW187393   3.258   0.435   7.017
28462SOL    HW287394   3.392   0.373   7.052
28463SOL     OW87395   7.825   6.624   7.412
28463SOL    HW187396   7.877   6.701   7.434
28463SOL    HW287397   7.811   6.631   7.317
28464SOL     OW87398   1.948   9.790   3.852
28464SOL    HW187399   1.894   9.790   3.773
28464SOL    HW287400   1.887   9.771   3.923
28465SOL     OW87401   4.209   0.723  10.715
28465SOL    HW187402   4.288   0.765  10.680
28465SOL    HW287403   4.243   0.654  10.772
28466SOL     OW87404   4.062   1.887   1.003
28466SOL    HW187405   4.102   1.949   1.064
28466SOL    HW287406   4.133   1.864   0.943
28467SOL     OW87407   6.367   0.165   7.265
28467SOL    HW187408   6.274   0.163   7.289
28467SOL    HW287409   6.376   0.242   7.209
28468SOL     OW87410   2.011   8.314   5.272
28468SOL    HW187411   1.932   8.353   5.235
28468SOL    HW287412   1.987   8.289   5.361
28469SOL     OW87413   8.269   9.362   4.511
28469SOL    HW187414   8.290   9.277   4.470
28469SOL    HW287415   8.191   9.391   4.465
28470SOL     OW87416   8.847   6.117   2.811
28470SOL    HW187417   8.919   6.068   2.851
28470SOL    HW287418   8.826   6.068   2.731
28471SOL     OW87419   2.455   9.680   8.325
28471SOL    HW187420   2.526   9.744   8.320
28471SOL    HW287421   2.495   9.602   8.363
28472SOL     OW87422  10.086   8.466   1.161
28472SOL    HW187423  10.056   8.506   1.242
28472SOL    HW287424  10.132   8.387   1.189
28473SOL     OW87425   7.074   9.824  10.562
28473SOL    HW187426   7.154   9.802  10.515
28473SOL    HW287427   7.072   9.763  10.636
28474SOL     OW87428   0.040   9.144   6.807
28474SOL    HW187429   0.022   9.235   6.783
28474SOL    HW287430   0.051   9.099   6.723
28475SOL     OW87431   9.961   2.310   5.094
28475SOL    HW187432   9.896   2.250   5.130
28475SOL    HW287433   9.940   2.394   5.133
28476SOL     OW87434   1.494   0.891   7.090
28476SOL    HW187435   1.413   0.939   7.101
28476SOL    HW287436   1.528   0.920   7.005
28477SOL     OW87437   1.460   1.745   2.198
28477SOL    HW187438   1.414   1.677   2.147
28477SOL    HW287439   1.394   1.778   2.259
28478SOL     OW87440   3.077   9.669   4.607
28478SOL    HW187441   3.119   9.603   4.552
28478SOL    HW287442   2.989   9.677   4.571
28479SOL     OW87443   8.867   7.045   9.272
28479SOL    HW187444   8.808   7.111   9.235
28479SOL    HW287445   8.846   7.043   9.365
28480SOL     OW87446   7.024   0.090   6.048
28480SOL    HW187447   7.077   0.010   6.054
28480SOL    HW287448   6.940   0.060   6.013
28481SOL     OW87449   9.121   7.581   0.953
28481SOL    HW187450   9.052   7.641   0.980
28481SOL    HW287451   9.198   7.636   0.942
28482SOL     OW87452   7.545   8.365   0.919
28482SOL    HW187453   7.511   8.276   0.933
28482SOL    HW287454   7.468   8.417   0.899
28483SOL     OW87455   1.250   1.604   0.211
28483SOL    HW187456   1.268   1.675   0.273
28483SOL    HW287457   1.156   1.589   0.218
28484SOL     OW87458   7.474   5.765   9.717
28484SOL    HW187459   7.503   5.856   9.724
28484SOL    HW287460   7.380   5.771   9.699
28485SOL     OW87461  10.641   9.831   6.660
28485SOL    HW187462  10.696   9.897   6.618
28485SOL    HW287463  10.612   9.775   6.587
28486SOL     OW87464   0.979   3.837   7.328
28486SOL    HW187465   0.911   3.769   7.331
28486SOL    HW287466   1.045   3.807   7.390
28487SOL     OW87467  10.925   8.105   0.547
28487SOL    HW187468  10.911   8.039   0.478
28487SOL    HW287469  11.004   8.075   0.593
28488SOL     OW87470   0.515   9.152   6.677
28488SOL    HW187471   0.532   9.068   6.634
28488SOL    HW287472   0.432   9.139   6.722
28489SOL     OW87473   6.931   8.809   4.796
28489SOL    HW187474   6.943   8.847   4.883
28489SOL    HW287475   6.889   8.724   4.812
28490SOL     OW87476   6.468   8.085   9.251
28490SOL    HW187477   6.485   7.990   9.251
28490SOL    HW287478   6.385   8.094   9.298
28491SOL     OW87479   9.366   9.713   5.836
28491SOL    HW187480   9.290   9.761   5.868
28491SOL    HW287481   9.438   9.775   5.840
28492SOL     OW87482   8.687  11.036   3.675
28492SOL    HW187483   8.700  10.943   3.694
28492SOL    HW287484   8.643  11.037   3.590
28493SOL     OW87485   3.329   8.768   9.276
28493SOL    HW187486   3.298   8.748   9.364
28493SOL    HW287487   3.281   8.707   9.219
28494SOL     OW87488   5.870   4.005   0.961
28494SOL    HW187489   5.955   4.031   0.924
28494SOL    HW287490   5.890   3.977   1.050
28495SOL     OW87491   7.478   4.684   8.828
28495SOL    HW187492   7.387   4.661   8.812
28495SOL    HW287493   7.512   4.710   8.742
28496SOL     OW87494   1.612   1.341   0.394
28496SOL    HW187495   1.634   1.432   0.379
28496SOL    HW287496   1.668   1.314   0.467
28497SOL     OW87497   1.499   0.848   7.808
28497SOL    HW187498   1.584   0.826   7.846
28497SOL    HW287499   1.511   0.935   7.770
28498SOL     OW87500   7.393   9.209   4.541
28498SOL    HW187501   7.437   9.149   4.481
28498SOL    HW287502   7.464   9.253   4.587
28499SOL     OW87503   3.968  10.144   5.338
28499SOL    HW187504   4.024  10.171   5.265
28499SOL    HW287505   3.879  10.165   5.309
28500SOL     OW87506  10.233   1.546   9.510
28500SOL    HW187507  10.141   1.569   9.496
28500SOL    HW287508  10.279   1.584   9.435
28501SOL     OW87509   7.046   9.049   2.457
28501SOL    HW187510   6.966   9.001   2.434
28501SOL    HW287511   7.114   9.009   2.403
28502SOL     OW87512  10.064  10.335   8.246
28502SOL    HW187513  10.079  10.262   8.185
28502SOL    HW287514  10.092  10.413   8.198
28503SOL     OW87515   3.741   6.180   5.950
28503SOL    HW187516   3.828   6.141   5.945
28503SOL    HW287517   3.751   6.253   6.010
28504SOL     OW87518   6.316   7.403  10.363
28504SOL    HW187519   6.279   7.490  10.347
28504SOL    HW287520   6.315   7.394  10.458
28505SOL     OW87521   9.963   3.298   0.314
28505SOL    HW187522  10.003   3.255   0.238
28505SOL    HW287523   9.881   3.250   0.327
28506SOL     OW87524   4.879   7.148   9.746
28506SOL    HW187525   4.888   7.232   9.702
28506SOL    HW287526   4.965   7.107   9.737
28507SOL     OW87527   1.187   7.566   4.120
28507SOL    HW187528   1.253   7.506   4.156
28507SOL    HW287529   1.205   7.568   4.026
28508SOL     OW87530   0.672   7.415   7.034
28508SOL    HW187531   0.648   7.322   7.041
28508SOL    HW287532   0.602   7.454   6.981
28509SOL     OW87533   7.601   5.858   0.679
28509SOL    HW187534   7.578   5.936   0.728
28509SOL    HW287535   7.562   5.871   0.593
28510SOL     OW87536   9.467   3.382   0.538
28510SOL    HW187537   9.448   3.288   0.545
28510SOL    HW287538   9.562   3.387   0.548
28511SOL     OW87539  10.295   4.893   0.105
28511SOL    HW187540  10.225   4.870   0.166
28511SOL    HW287541  10.374   4.896   0.159
28512SOL     OW87542   0.425  11.073   5.259
28512SOL    HW187543   0.342  11.078   5.211
28512SOL    HW287544   0.400  11.051   5.349
28513SOL     OW87545   9.751   1.517   1.641
28513SOL    HW187546   9.840   1.494   1.667
28513SOL    HW287547   9.697   1.496   1.717
28514SOL     OW87548   7.210   9.328   6.485
28514SOL    HW187549   7.210   9.283   6.400
28514SOL    HW287550   7.121   9.361   6.495
28515SOL     OW87551   0.256  11.070   5.499
28515SOL    HW187552   0.260  10.987   5.547
28515SOL    HW287553   0.169  11.105   5.519
28516SOL     OW87554  10.179   8.358   2.400
28516SOL    HW187555  10.109   8.338   2.461
28516SOL    HW287556  10.135   8.398   2.325
28517SOL     OW87557  10.281   5.228   6.882
28517SOL    HW187558  10.331   5.199   6.958
28517SOL    HW287559  10.241   5.310   6.909
28518SOL     OW87560   8.192   8.414   7.797
28518SOL    HW187561   8.145   8.477   7.742
28518SOL    HW287562   8.277   8.403   7.754
28519SOL     OW87563   7.933   2.367   5.180
28519SOL    HW187564   7.904   2.458   5.171
28519SOL    HW287565   7.945   2.337   5.090
28520SOL     OW87566   5.713  10.637   3.796
28520SOL    HW187567   5.644  10.646   3.730
28520SOL    HW287568   5.712  10.544   3.820
28521SOL     OW87569   0.143   8.650   1.659
28521SOL    HW187570   0.172   8.734   1.693
28521SOL    HW287571   0.110   8.603   1.735
28522SOL     OW87572   8.227   9.108   2.862
28522SOL    HW187573   8.255   9.198   2.846
28522SOL    HW287574   8.206   9.105   2.955
28523SOL     OW87575   2.691   1.630   0.099
28523SOL    HW187576   2.643   1.550   0.122
28523SOL    HW287577   2.782   1.602   0.094
28524SOL     OW87578   7.721   5.417   7.022
28524SOL    HW187579   7.675   5.371   6.951
28524SOL    HW287580   7.667   5.403   7.099
28525SOL     OW87581  10.686   9.551   2.536
28525SOL    HW187582  10.720   9.571   2.623
28525SOL    HW287583  10.716   9.462   2.518
28526SOL     OW87584   4.133   4.608   5.075
28526SOL    HW187585   4.228   4.602   5.089
28526SOL    HW287586   4.116   4.701   5.063
28527SOL     OW87587   9.735   8.719   5.187
28527SOL    HW187588   9.688   8.635   5.189
28527SOL    HW287589   9.709   8.759   5.104
28528SOL     OW87590   4.677   1.423   2.891
28528SOL    HW187591   4.710   1.510   2.912
28528SOL    HW287592   4.754   1.366   2.898
28529SOL     OW87593   7.464   8.756   8.997
28529SOL    HW187594   7.524   8.754   8.922
28529SOL    HW287595   7.513   8.801   9.065
28530SOL     OW87596   3.764   6.329   4.346
28530SOL    HW187597   3.822   6.405   4.345
28530SOL    HW287598   3.681   6.362   4.380
28531SOL     OW87599   5.207   3.452   0.526
28531SOL    HW187600   5.194   3.357   0.531
28531SOL    HW287601   5.182   3.484   0.612
28532SOL     OW87602   5.621   6.060  10.203
28532SOL    HW187603   5.657   5.972  10.187
28532SOL    HW287604   5.650   6.112  10.128
28533SOL     OW87605   2.740   9.813   8.106
28533SOL    HW187606   2.709   9.819   8.196
28533SOL    HW287607   2.673   9.858   8.054
28534SOL     OW87608   1.892   4.491   7.131
28534SOL    HW187609   1.979   4.462   7.159
28534SOL    HW287610   1.838   4.412   7.136
28535SOL     OW87611   0.310   0.507   5.499
28535SOL    HW187612   0.281   0.576   5.558
28535SOL    HW287613   0.355   0.553   5.428
28536SOL     OW87614   6.902   9.698   4.965
28536SOL    HW187615   6.889   9.772   4.906
28536SOL    HW287616   6.834   9.635   4.939
28537SOL     OW87617   8.299   9.771   5.244
28537SOL    HW187618   8.273   9.850   5.197
28537SOL    HW287619   8.223   9.713   5.236
28538SOL     OW87620   1.752   6.905   9.111
28538SOL    HW187621   1.712   6.973   9.165
28538SOL    HW287622   1.705   6.910   9.027
28539SOL     OW87623   6.965   6.797   3.442
28539SOL    HW187624   7.008   6.774   3.359
28539SOL    HW287625   6.962   6.714   3.490
28540SOL     OW87626   7.316   6.734   5.994
28540SOL    HW187627   7.345   6.719   6.084
28540SOL    HW287628   7.370   6.674   5.942
28541SOL     OW87629   7.081   4.055  10.307
28541SOL    HW187630   7.169   4.064  10.345
28541SOL    HW287631   7.035   4.135  10.333
28542SOL     OW87632   7.559  10.439   8.262
28542SOL    HW187633   7.580  10.381   8.335
28542SOL    HW287634   7.465  10.428   8.248
28543SOL     OW87635   7.902   6.148   4.039
28543SOL    HW187636   7.871   6.140   4.129
28543SOL    HW287637   7.822   6.155   3.986
28544SOL     OW87638   3.751   5.647   8.471
28544SOL    HW187639   3.782   5.737   8.464
28544SOL    HW287640   3.680   5.651   8.535
28545SOL     OW87641   3.709   1.527   6.495
28545SOL    HW187642   3.623   1.563   6.472
28545SOL    HW287643   3.752   1.512   6.411
28546SOL     OW87644   1.131   1.760  10.021
28546SOL    HW187645   1.051   1.719   9.989
28546SOL    HW287646   1.188   1.686  10.042
28547SOL     OW87647   5.082   1.920   6.108
28547SOL    HW187648   5.085   1.906   6.013
28547SOL    HW287649   5.159   1.974   6.126
28548SOL     OW87650   5.096   0.429   6.754
28548SOL    HW187651   5.145   0.420   6.672
28548SOL    HW287652   5.111   0.346   6.800
28549SOL     OW87653   9.701   1.784   5.478
28549SOL    HW187654   9.616   1.777   5.521
28549SOL    HW287655   9.747   1.704   5.503
28550SOL     OW87656   5.259   9.852   6.722
28550SOL    HW187657   5.248   9.774   6.667
28550SOL    HW287658   5.325   9.904   6.676
28551SOL     OW87659  10.956  10.038   3.805
28551SOL    HW187660  10.956  10.103   3.735
28551SOL    HW287661  10.890   9.974   3.778
28552SOL     OW87662   4.416   7.423   8.683
28552SOL    HW187663   4.340   7.370   8.707
28552SOL    HW287664   4.401   7.507   8.726
28553SOL     OW87665   6.156   8.322   7.887
28553SOL    HW187666   6.162   8.353   7.796
28553SOL    HW287667   6.065   8.294   7.897
28554SOL     OW87668   2.221   7.583   7.471
28554SOL    HW187669   2.245   7.624   7.388
28554SOL    HW287670   2.158   7.643   7.510
28555SOL     OW87671   7.945   6.573   3.930
28555SOL    HW187672   7.949   6.513   3.855
28555SOL    HW287673   7.864   6.622   3.916
28556SOL     OW87674   6.444   6.142   9.701
28556SOL    HW187675   6.381   6.199   9.745
28556SOL    HW287676   6.509   6.201   9.664
28557SOL     OW87677   7.131   2.390   8.268
28557SOL    HW187678   7.154   2.379   8.360
28557SOL    HW287679   7.136   2.302   8.231
28558SOL     OW87680   4.130  10.851   2.173
28558SOL    HW187681   4.185  10.773   2.182
28558SOL    HW287682   4.095  10.866   2.260
28559SOL     OW87683  10.687   0.796   3.715
28559SOL    HW187684  10.604   0.779   3.671
28559SOL    HW287685  10.691   0.891   3.724
28560SOL     OW87686   4.411   7.381   0.340
28560SOL    HW187687   4.331   7.329   0.342
28560SOL    HW287688   4.419   7.409   0.248
28561SOL     OW87689   6.555   9.207   0.323
28561SOL    HW187690   6.478   9.151   0.336
28561SOL    HW287691   6.629   9.154   0.354
28562SOL     OW87692   2.230   9.174  10.858
28562SOL    HW187693   2.309   9.144  10.813
28562SOL    HW287694   2.158   9.136  10.807
28563SOL     OW87695   3.643   0.231   4.571
28563SOL    HW187696   3.736   0.209   4.577
28563SOL    HW287697   3.625   0.279   4.651
28564SOL     OW87698  10.616   1.295   5.045
28564SOL    HW187699  10.707   1.270   5.060
28564SOL    HW287700  10.602   1.281   4.951
28565SOL     OW87701  10.092   2.081   2.923
28565SOL    HW187702  10.087   2.031   2.841
28565SOL    HW287703  10.001   2.087   2.953
28566SOL     OW87704   3.910  10.593   0.905
28566SOL    HW187705   3.860  10.545   0.839
28566SOL    HW287706   3.869  10.570   0.988
28567SOL     OW87707   5.614   9.043   9.482
28567SOL    HW187708   5.523   9.060   9.459
28567SOL    HW287709   5.663   9.066   9.403
28568SOL     OW87710   6.211  10.434   6.823
28568SOL    HW187711   6.172  10.487   6.892
28568SOL    HW287712   6.305  10.448   6.831
28569SOL     OW87713   4.513   0.236   6.353
28569SOL    HW187714   4.570   0.219   6.278
28569SOL    HW287715   4.543   0.175   6.420
28570SOL     OW87716   8.251   4.909   5.318
28570SOL    HW187717   8.302   4.850   5.262
28570SOL    HW287718   8.242   4.989   5.266
28571SOL     OW87719   4.561   2.106   5.290
28571SOL    HW187720   4.617   2.042   5.246
28571SOL    HW287721   4.493   2.053   5.332
28572SOL     OW87722   0.411   7.626   4.388
28572SOL    HW187723   0.492   7.601   4.432
28572SOL    HW287724   0.418   7.587   4.301
28573SOL     OW87725   0.075   7.091   5.133
28573SOL    HW187726   0.159   7.059   5.101
28573SOL    HW287727   0.046   7.154   5.067
28574SOL     OW87728   9.606   1.007   4.778
28574SOL    HW187729   9.646   0.937   4.726
28574SOL    HW287730   9.569   1.067   4.713
28575SOL     OW87731   0.517   1.622   4.730
28575SOL    HW187732   0.478   1.534   4.727
28575SOL    HW287733   0.569   1.628   4.649
28576SOL     OW87734   6.418   8.387   8.968
28576SOL    HW187735   6.357   8.380   8.895
28576SOL    HW287736   6.363   8.397   9.045
28577SOL     OW87737  10.553   9.811   9.370
28577SOL    HW187738  10.620   9.869   9.334
28577SOL    HW287739  10.472   9.840   9.329
28578SOL     OW87740   8.259   0.054   9.416
28578SOL    HW187741   8.168   0.033   9.394
28578SOL    HW287742   8.307  -0.028   9.401
28579SOL     OW87743   0.010   8.068   3.449
28579SOL    HW187744  -0.032   7.982   3.442
28579SOL    HW287745  -0.050   8.127   3.403
28580SOL     OW87746   7.667   7.981   7.513
28580SOL    HW187747   7.599   7.914   7.509
28580SOL    HW287748   7.720   7.956   7.588
28581SOL     OW87749   2.816   4.255   8.897
28581SOL    HW187750   2.880   4.246   8.826
28581SOL    HW287751   2.734   4.224   8.858
28582SOL     OW87752  10.624   9.845   6.199
28582SOL    HW187753  10.578   9.844   6.115
28582SOL    HW287754  10.575   9.784   6.254
28583SOL     OW87755   3.530   0.433   9.036
28583SOL    HW187756   3.552   0.343   9.061
28583SOL    HW287757   3.438   0.443   9.061
28584SOL     OW87758   2.296   2.871   2.856
28584SOL    HW187759   2.281   2.942   2.793
28584SOL    HW287760   2.381   2.891   2.896
28585SOL     OW87761   4.381   8.278   3.508
28585SOL    HW187762   4.457   8.327   3.476
28585SOL    HW287763   4.401   8.187   3.487
28586SOL     OW87764   6.129   7.466   5.581
28586SOL    HW187765   6.174   7.406   5.521
28586SOL    HW287766   6.045   7.423   5.599
28587SOL     OW87767   9.953   5.503   0.085
28587SOL    HW187768   9.894   5.569   0.049
28587SOL    HW287769   9.996   5.546   0.159
28588SOL     OW87770   2.030   6.504   4.685
28588SOL    HW187771   2.014   6.564   4.612
28588SOL    HW287772   1.969   6.432   4.671
28589SOL     OW87773   4.994   8.008   3.816
28589SOL    HW187774   4.984   8.103   3.813
28589SOL    HW287775   4.911   7.973   3.784
28590SOL     OW87776   5.889   9.668   8.637
28590SOL    HW187777   5.862   9.699   8.550
28590SOL    HW287778   5.891   9.747   8.691
28591SOL     OW87779   2.273  10.849   9.836
28591SOL    HW187780   2.193  10.813   9.798
28591SOL    HW287781   2.344  10.799   9.795
28592SOL     OW87782   1.654   9.955   1.628
28592SOL    HW187783   1.749   9.945   1.617
28592SOL    HW287784   1.636   9.917   1.714
28593SOL     OW87785   3.986   0.105   7.322
28593SOL    HW187786   3.967   0.095   7.415
28593SOL    HW287787   3.950   0.026   7.282
28594SOL     OW87788   1.332   2.825   7.698
28594SOL    HW187789   1.338   2.860   7.609
28594SOL    HW287790   1.334   2.902   7.754
28595SOL     OW87791   4.297   0.301   2.494
28595SOL    HW187792   4.281   0.381   2.544
28595SOL    HW287793   4.374   0.261   2.535
28596SOL     OW87794   3.256   4.844   2.129
28596SOL    HW187795   3.268   4.794   2.048
28596SOL    HW287796   3.314   4.801   2.192
28597SOL     OW87797   1.398   1.115   6.678
28597SOL    HW187798   1.303   1.103   6.674
28597SOL    HW287799   1.419   1.166   6.600
28598SOL     OW87800   7.573   4.540   9.898
28598SOL    HW187801   7.557   4.448   9.877
28598SOL    HW287802   7.612   4.576   9.818
28599SOL     OW87803   7.762   4.839   7.493
28599SOL    HW187804   7.755   4.749   7.461
28599SOL    HW287805   7.709   4.890   7.431
28600SOL     OW87806   3.642   0.845   1.170
28600SOL    HW187807   3.688   0.761   1.160
28600SOL    HW287808   3.566   0.824   1.225
28601SOL     OW87809   6.571   4.415   4.467
28601SOL    HW187810   6.504   4.377   4.410
28601SOL    HW287811   6.646   4.355   4.458
28602SOL     OW87812   6.300   2.416   6.713
28602SOL    HW187813   6.265   2.467   6.640
28602SOL    HW287814   6.369   2.362   6.673
28603SOL     OW87815   4.243   2.825   5.104
28603SOL    HW187816   4.242   2.762   5.031
28603SOL    HW287817   4.266   2.772   5.181
28604SOL     OW87818   5.425   0.414   3.457
28604SOL    HW187819   5.351   0.475   3.458
28604SOL    HW287820   5.452   0.410   3.365
28605SOL     OW87821  11.000   6.912   5.858
28605SOL    HW187822  11.017   6.993   5.906
28605SOL    HW287823  11.076   6.857   5.877
28606SOL     OW87824   4.755   9.360   4.020
28606SOL    HW187825   4.726   9.432   4.075
28606SOL    HW287826   4.710   9.283   4.055
28607SOL     OW87827  11.099   8.342   8.586
28607SOL    HW187828  11.152   8.290   8.525
28607SOL    HW287829  11.012   8.343   8.546
28608SOL     OW87830   6.824   8.513  10.120
28608SOL    HW187831   6.830   8.555  10.206
28608SOL    HW287832   6.882   8.565  10.064
28609SOL     OW87833   5.902   3.670   3.778
28609SOL    HW187834   5.852   3.596   3.813
28609SOL    HW287835   5.956   3.631   3.709
28610SOL     OW87836   1.356   2.907   9.137
28610SOL    HW187837   1.303   2.934   9.211
28610SOL    HW287838   1.444   2.939   9.157
28611SOL     OW87839  10.910   8.538   0.011
28611SOL    HW187840  10.997   8.553  -0.026
28611SOL    HW287841  10.868   8.624   0.009
28612SOL     OW87842   5.982   4.160   6.550
28612SOL    HW187843   5.971   4.142   6.643
28612SOL    HW287844   6.033   4.085   6.517
28613SOL     OW87845   4.232   7.598   2.899
28613SOL    HW187846   4.150   7.571   2.939
28613SOL    HW287847   4.206   7.659   2.830
28614SOL     OW87848   5.114   9.332   7.803
28614SOL    HW187849   5.108   9.245   7.842
28614SOL    HW287850   5.188   9.326   7.742
28615SOL     OW87851   9.734   7.003   1.499
28615SOL    HW187852   9.656   7.036   1.454
28615SOL    HW287853   9.722   6.908   1.500
28616SOL     OW87854   1.535   1.840   9.374
28616SOL    HW187855   1.482   1.894   9.431
28616SOL    HW287856   1.610   1.814   9.428
28617SOL     OW87857   2.799  10.556   3.839
28617SOL    HW187858   2.816  10.616   3.766
28617SOL    HW287859   2.742  10.606   3.897
28618SOL     OW87860   5.685   0.094   3.675
28618SOL    HW187861   5.612   0.085   3.736
28618SOL    HW287862   5.680   0.184   3.644
28619SOL     OW87863   5.415   5.453  10.851
28619SOL    HW187864   5.394   5.417  10.765
28619SOL    HW287865   5.367   5.535  10.855
28620SOL     OW87866   2.810   2.114   1.039
28620SOL    HW187867   2.756   2.177   0.992
28620SOL    HW287868   2.775   2.029   1.013
28621SOL     OW87869   0.309   9.507   3.635
28621SOL    HW187870   0.247   9.579   3.622
28621SOL    HW287871   0.306   9.458   3.552
28622SOL     OW87872   7.983   1.052   6.584
28622SOL    HW187873   8.016   0.980   6.529
28622SOL    HW287874   8.025   1.130   6.547
28623SOL     OW87875   9.287   6.053   5.915
28623SOL    HW187876   9.238   5.989   5.862
28623SOL    HW287877   9.367   6.069   5.865
28624SOL     OW87878   3.648   8.169   5.200
28624SOL    HW187879   3.720   8.206   5.251
28624SOL    HW287880   3.577   8.157   5.263
28625SOL     OW87881   3.231  10.803   8.327
28625SOL    HW187882   3.210  10.803   8.233
28625SOL    HW287883   3.220  10.894   8.354
28626SOL     OW87884  10.655   3.312   6.825
28626SOL    HW187885  10.675   3.224   6.857
28626SOL    HW287886  10.602   3.351   6.894
28627SOL     OW87887   7.346   1.321   0.009
28627SOL    HW187888   7.339   1.273   0.092
28627SOL    HW287889   7.435   1.357   0.010
28628SOL     OW87890   9.446  10.771   8.339
28628SOL    HW187891   9.541  10.784   8.342
28628SOL    HW287892   9.421  10.798   8.250
28629SOL     OW87893   4.939  10.492   4.023
28629SOL    HW187894   4.947  10.397   4.015
28629SOL    HW287895   5.024  10.525   3.993
28630SOL     OW87896   7.033  10.080   9.712
28630SOL    HW187897   7.036  10.042   9.800
28630SOL    HW287898   7.124  10.078   9.682
28631SOL     OW87899   0.960   8.990   4.499
28631SOL    HW187900   1.030   8.984   4.564
28631SOL    HW287901   0.983   9.066   4.445
28632SOL     OW87902   6.049   0.585   8.535
28632SOL    HW187903   6.138   0.578   8.500
28632SOL    HW287904   6.021   0.494   8.547
28633SOL     OW87905   6.774   2.855   7.099
28633SOL    HW187906   6.838   2.796   7.057
28633SOL    HW287907   6.747   2.914   7.029
28634SOL     OW87908   7.595   8.933   2.317
28634SOL    HW187909   7.537   8.902   2.247
28634SOL    HW287910   7.683   8.909   2.287
28635SOL     OW87911   2.397   2.029   9.604
28635SOL    HW187912   2.396   2.109   9.655
28635SOL    HW287913   2.455   1.970   9.652
28636SOL     OW87914   7.378   7.794   4.650
28636SOL    HW187915   7.371   7.868   4.590
28636SOL    HW287916   7.288   7.764   4.662
28637SOL     OW87917   2.925   3.691   2.764
28637SOL    HW187918   2.971   3.639   2.830
28637SOL    HW287919   2.943   3.645   2.681
28638SOL     OW87920   2.361   0.614   4.212
28638SOL    HW187921   2.354   0.704   4.242
28638SOL    HW287922   2.271   0.589   4.191
28639SOL     OW87923   9.888   8.141   8.899
28639SOL    HW187924   9.803   8.168   8.864
28639SOL    HW287925   9.869   8.062   8.950
28640SOL     OW87926   1.846   5.953   8.299
28640SOL    HW187927   1.776   5.892   8.275
28640SOL    HW287928   1.895   5.907   8.368
28641SOL     OW87929   9.126   3.373   2.397
28641SOL    HW187930   9.049   3.401   2.446
28641SOL    HW287931   9.179   3.452   2.386
28642SOL     OW87932   7.111   5.047   6.762
28642SOL    HW187933   7.141   5.056   6.852
28642SOL    HW287934   7.016   5.044   6.768
28643SOL     OW87935   3.339   1.010   4.796
28643SOL    HW187936   3.354   0.917   4.780
28643SOL    HW287937   3.282   1.038   4.724
28644SOL     OW87938   7.731   6.913   8.989
28644SOL    HW187939   7.761   6.925   8.898
28644SOL    HW287940   7.637   6.897   8.981
28645SOL     OW87941   1.062   9.546  10.464
28645SOL    HW187942   1.048   9.630  10.420
28645SOL    HW287943   1.129   9.564  10.530
28646SOL     OW87944   5.630  10.825   7.824
28646SOL    HW187945   5.684  10.761   7.870
28646SOL    HW287946   5.627  10.793   7.733
28647SOL     OW87947   5.890   1.081  10.208
28647SOL    HW187948   5.942   1.147  10.162
28647SOL    HW287949   5.954   1.015  10.235
28648SOL     OW87950   5.968   5.228   7.164
28648SOL    HW187951   5.933   5.313   7.139
28648SOL    HW287952   5.956   5.174   7.086
28649SOL     OW87953  10.250   7.545  10.127
28649SOL    HW187954  10.332   7.593  10.137
28649SOL    HW287955  10.256   7.506  10.040
28650SOL     OW87956   4.739   8.082   6.828
28650SOL    HW187957   4.815   8.073   6.886
28650SOL    HW287958   4.771   8.135   6.755
28651SOL     OW87959   7.213   5.588   9.307
28651SOL    HW187960   7.128   5.618   9.337
28651SOL    HW287961   7.227   5.505   9.353
28652SOL     OW87962   3.089   6.971   1.038
28652SOL    HW187963   3.024   7.039   1.052
28652SOL    HW287964   3.040   6.889   1.045
28653SOL     OW87965   3.804   3.877   3.266
28653SOL    HW187966   3.823   3.793   3.308
28653SOL    HW287967   3.743   3.855   3.195
28654SOL     OW87968   1.304   6.855   1.893
28654SOL    HW187969   1.285   6.879   1.802
28654SOL    HW287970   1.299   6.937   1.942
28655SOL     OW87971   2.377   1.803  10.552
28655SOL    HW187972   2.446   1.773  10.611
28655SOL    HW287973   2.324   1.724  10.536
28656SOL     OW87974   1.707   2.740   3.516
28656SOL    HW187975   1.720   2.678   3.588
28656SOL    HW287976   1.648   2.806   3.551
28657SOL     OW87977   0.345   7.621  11.080
28657SOL    HW187978   0.417   7.652  11.024
28657SOL    HW287979   0.272   7.606  11.019
28658SOL     OW87980   7.911  10.258   8.252
28658SOL    HW187981   7.878  10.195   8.316
28658SOL    HW287982   7.999  10.279   8.282
28659SOL     OW87983   0.803   9.213   2.815
28659SOL    HW187984   0.860   9.227   2.891
28659SOL    HW287985   0.723   9.262   2.835
28660SOL     OW87986   2.383   5.767   6.140
28660SOL    HW187987   2.427   5.789   6.222
28660SOL    HW287988   2.453   5.768   6.074
28661SOL     OW87989   5.483   4.793   0.275
28661SOL    HW187990   5.464   4.785   0.181
28661SOL    HW287991   5.424   4.861   0.306
28662SOL     OW87992   4.990  10.270   7.118
28662SOL    HW187993   5.079  10.276   7.154
28662SOL    HW287994   4.996  10.311   7.031
28663SOL     OW87995   3.106   8.888   8.527
28663SOL    HW187996   3.143   8.894   8.615
28663SOL    HW287997   3.014   8.913   8.538
28664SOL     OW87998   5.827   6.335  10.401
28664SOL    HW187999   5.849   6.381  10.481
28664SOL    HW288000   5.736   6.308  10.413
28665SOL     OW88001   2.349   7.366   9.461
28665SOL    HW188002   2.413   7.399   9.398
28665SOL    HW288003   2.395   7.368   9.545
28666SOL     OW88004   4.442   2.589   1.710
28666SOL    HW188005   4.529   2.574   1.748
28666SOL    HW288006   4.411   2.501   1.687
28667SOL     OW88007   9.696  10.779   8.401
28667SOL    HW188008   9.684  10.772   8.495
28667SOL    HW288009   9.767  10.842   8.390
28668SOL     OW88010   3.783   9.445   8.968
28668SOL    HW188011   3.815   9.482   9.050
28668SOL    HW288012   3.773   9.351   8.986
28669SOL     OW88013   7.402   8.831   2.162
28669SOL    HW188014   7.368   8.744   2.139
28669SOL    HW288015   7.442   8.862   2.081
28670SOL     OW88016   7.348   1.717   7.445
28670SOL    HW188017   7.355   1.661   7.522
28670SOL    HW288018   7.290   1.669   7.386
28671SOL     OW88019  10.975   9.676   5.574
28671SOL    HW188020  10.999   9.768   5.579
28671SOL    HW288021  11.054   9.632   5.542
28672SOL     OW88022   9.484   8.041  11.058
28672SOL    HW188023   9.523   8.116  11.102
28672SOL    HW288024   9.403   8.074  11.020
28673SOL     OW88025   2.036   1.263   4.598
28673SOL    HW188026   2.117   1.284   4.644
28673SOL    HW288027   1.993   1.347   4.584
28674SOL     OW88028   8.869   5.426   0.061
28674SOL    HW188029   8.957   5.429   0.024
28674SOL    HW288030   8.884   5.414   0.155
28675SOL     OW88031   5.377   1.793   8.691
28675SOL    HW188032   5.302   1.757   8.738
28675SOL    HW288033   5.422   1.716   8.655
28676SOL     OW88034   4.208  10.293   3.671
28676SOL    HW188035   4.285  10.323   3.622
28676SOL    HW288036   4.136  10.345   3.637
28677SOL     OW88037   9.931   4.652   0.581
28677SOL    HW188038   9.931   4.744   0.556
28677SOL    HW288039   9.931   4.605   0.497
28678SOL     OW88040   5.283   1.868   5.571
28678SOL    HW188041   5.254   1.786   5.531
28678SOL    HW288042   5.208   1.926   5.563
28679SOL     OW88043   6.012   8.639   4.873
28679SOL    HW188044   6.012   8.563   4.815
28679SOL    HW288045   5.922   8.671   4.870
28680SOL     OW88046   8.089   9.019   0.498
28680SOL    HW188047   8.043   8.943   0.462
28680SOL    HW288048   8.163   8.981   0.545
28681SOL     OW88049   6.199   0.698   9.282
28681SOL    HW188050   6.131   0.659   9.337
28681SOL    HW288051   6.183   0.792   9.286
28682SOL     OW88052   9.536   0.764  10.244
28682SOL    HW188053   9.482   0.824  10.295
28682SOL    HW288054   9.623   0.770  10.283
28683SOL     OW88055   3.457   1.985   9.332
28683SOL    HW188056   3.523   2.017   9.393
28683SOL    HW288057   3.496   1.998   9.245
28684SOL     OW88058   5.651   9.112   2.039
28684SOL    HW188059   5.720   9.177   2.027
28684SOL    HW288060   5.698   9.030   2.059
28685SOL     OW88061   0.875   6.595   7.551
28685SOL    HW188062   0.873   6.676   7.602
28685SOL    HW288063   0.788   6.589   7.511
28686SOL     OW88064  10.243  10.109   4.840
28686SOL    HW188065  10.312  10.120   4.905
28686SOL    HW288066  10.248  10.188   4.786
28687SOL     OW88067   5.922   8.963   5.074
28687SOL    HW188068   5.863   8.962   5.149
28687SOL    HW288069   5.988   8.896   5.094
28688SOL     OW88070   2.630   9.570   7.995
28688SOL    HW188071   2.688   9.559   7.919
28688SOL    HW288072   2.659   9.651   8.036
28689SOL     OW88073   4.661   9.690  10.196
28689SOL    HW188074   4.639   9.617  10.254
28689SOL    HW288075   4.647   9.655  10.108
28690SOL     OW88076   7.702   0.002   1.439
28690SOL    HW188077   7.774   0.059   1.411
28690SOL    HW288078   7.709  -0.001   1.534
28691SOL     OW88079   6.079   0.576   0.394
28691SOL    HW188080   6.117   0.641   0.453
28691SOL    HW288081   6.087   0.615   0.307
28692SOL     OW88082   3.889   1.613   1.711
28692SOL    HW188083   3.799   1.594   1.736
28692SOL    HW288084   3.942   1.553   1.764
28693SOL     OW88085   6.156   9.668   8.356
28693SOL    HW188086   6.105   9.625   8.287
28693SOL    HW288087   6.247   9.644   8.336
28694SOL     OW88088   5.180   3.246   8.820
28694SOL    HW188089   5.107   3.184   8.820
28694SOL    HW288090   5.153   3.315   8.759
28695SOL     OW88091   6.337   5.537   8.055
28695SOL    HW188092   6.365   5.546   7.964
28695SOL    HW288093   6.252   5.494   8.049
28696SOL     OW88094   9.270   9.725   7.688
28696SOL    HW188095   9.319   9.804   7.667
28696SOL    HW288096   9.287   9.709   7.781
28697SOL     OW88097   6.389   0.265   3.481
28697SOL    HW188098   6.312   0.208   3.477
28697SOL    HW288099   6.388   0.300   3.570
28698SOL     OW88100  10.282   1.025   7.757
28698SOL    HW188101  10.195   0.991   7.775
28698SOL    HW288102  10.341   0.956   7.787
28699SOL     OW88103   0.986   7.261   0.102
28699SOL    HW188104   1.060   7.321   0.090
28699SOL    HW288105   0.976   7.218   0.017
28700SOL     OW88106   4.330   4.336   0.173
28700SOL    HW188107   4.324   4.261   0.114
28700SOL    HW288108   4.261   4.395   0.145
28701SOL     OW88109   2.350   2.783  11.020
28701SOL    HW188110   2.418   2.786  11.087
28701SOL    HW288111   2.289   2.715  11.050
28702SOL     OW88112  10.650   0.041   6.055
28702SOL    HW188113  10.656   0.132   6.026
28702SOL    HW288114  10.725   0.029   6.113
28703SOL     OW88115   5.543   0.785   5.886
28703SOL    HW188116   5.569   0.722   5.953
28703SOL    HW288117   5.577   0.868   5.917
28704SOL     OW88118   1.283   0.101   8.643
28704SOL    HW188119   1.336   0.145   8.709
28704SOL    HW288120   1.347   0.064   8.581
28705SOL     OW88121   9.826   0.121  10.177
28705SOL    HW188122   9.794   0.035  10.150
28705SOL    HW288123   9.852   0.109  10.268
28706SOL     OW88124   9.552   7.748   8.536
28706SOL    HW188125   9.644   7.761   8.511
28706SOL    HW288126   9.509   7.718   8.455
28707SOL     OW88127   1.434   3.596  10.517
28707SOL    HW188128   1.392   3.626  10.597
28707SOL    HW288129   1.425   3.500  10.519
28708SOL     OW88130   6.939   0.913   9.322
28708SOL    HW188131   6.862   0.933   9.268
28708SOL    HW288132   6.903   0.886   9.406
28709SOL     OW88133   2.886   0.623   8.851
28709SOL    HW188134   2.961   0.676   8.878
28709SOL    HW288135   2.819   0.640   8.917
28710SOL     OW88136   8.044   1.846   6.987
28710SOL    HW188137   8.022   1.932   7.021
28710SOL    HW288138   8.059   1.860   6.893
28711SOL     OW88139   0.772   9.962   4.370
28711SOL    HW188140   0.863   9.976   4.397
28711SOL    HW288141   0.763  10.011   4.288
28712SOL     OW88142   5.903   1.716   2.872
28712SOL    HW188143   5.906   1.698   2.778
28712SOL    HW288144   5.845   1.648   2.907
28713SOL     OW88145   9.467   4.414   9.446
28713SOL    HW188146   9.550   4.412   9.398
28713SOL    HW288147   9.401   4.431   9.378
28714SOL     OW88148  10.126   9.436   8.576
28714SOL    HW188149  10.036   9.458   8.600
28714SOL    HW288150  10.147   9.496   8.505
28715SOL     OW88151   8.169   2.683  10.973
28715SOL    HW188152   8.183   2.771  10.938
28715SOL    HW288153   8.076   2.680  10.994
28716SOL     OW88154  10.144   3.871   6.146
28716SOL    HW188155  10.144   3.861   6.050
28716SOL    HW288156  10.118   3.785   6.179
28717SOL     OW88157   1.207   5.225   2.480
28717SOL    HW188158   1.170   5.308   2.508
28717SOL    HW288159   1.282   5.211   2.537
28718SOL     OW88160   8.926  10.723   5.157
28718SOL    HW188161   9.011  10.707   5.199
28718SOL    HW288162   8.940  10.700   5.065
28719SOL     OW88163   8.696   8.416   9.419
28719SOL    HW188164   8.635   8.409   9.345
28719SOL    HW288165   8.706   8.510   9.433
28720SOL     OW88166   6.034   2.749   4.659
28720SOL    HW188167   6.016   2.811   4.588
28720SOL    HW288168   6.010   2.663   4.623
28721SOL     OW88169   3.768   3.160  10.475
28721SOL    HW188170   3.683   3.153  10.519
28721SOL    HW288171   3.796   3.250  10.490
28722SOL     OW88172   9.201   8.953   5.774
28722SOL    HW188173   9.247   8.950   5.690
28722SOL    HW288174   9.259   9.004   5.831
28723SOL     OW88175   7.451   9.724   4.047
28723SOL    HW188176   7.531   9.773   4.065
28723SOL    HW288177   7.445   9.660   4.118
28724SOL     OW88178   7.983   0.633   7.418
28724SOL    HW188179   8.038   0.647   7.495
28724SOL    HW288180   7.894   0.653   7.448
28725SOL     OW88181   5.297   3.137   5.797
28725SOL    HW188182   5.212   3.116   5.758
28725SOL    HW288183   5.359   3.132   5.724
28726SOL     OW88184   4.744   3.686   0.569
28726SOL    HW188185   4.749   3.771   0.612
28726SOL    HW288186   4.677   3.697   0.502
28727SOL     OW88187   5.107   5.539   1.746
28727SOL    HW188188   5.034   5.503   1.796
28727SOL    HW288189   5.095   5.504   1.657
28728SOL     OW88190   8.272  10.195   7.803
28728SOL    HW188191   8.193  10.149   7.830
28728SOL    HW288192   8.303  10.146   7.726
28729SOL     OW88193   4.821   7.070   2.080
28729SOL    HW188194   4.896   7.077   2.139
28729SOL    HW288195   4.816   7.155   2.036
28730SOL     OW88196   1.010   3.834  10.630
28730SOL    HW188197   1.094   3.879  10.618
28730SOL    HW288198   0.969   3.835  10.543
28731SOL     OW88199   4.958  10.010  11.047
28731SOL    HW188200   4.927  10.020  10.957
28731SOL    HW288201   4.912  10.078  11.096
28732SOL     OW88202   8.541   2.064  10.513
28732SOL    HW188203   8.446   2.064  10.519
28732SOL    HW288204   8.560   2.024  10.428
28733SOL     OW88205   9.769  10.794   6.874
28733SOL    HW188206   9.787  10.742   6.795
28733SOL    HW288207   9.721  10.734   6.931
28734SOL     OW88208   7.358   5.308   7.626
28734SOL    HW188209   7.352   5.403   7.633
28734SOL    HW288210   7.314   5.275   7.704
28735SOL     OW88211   8.621  10.461   6.140
28735SOL    HW188212   8.535  10.503   6.138
28735SOL    HW288213   8.663  10.488   6.058
28736SOL     OW88214  10.042   8.048   8.462
28736SOL    HW188215   9.981   8.121   8.468
28736SOL    HW288216  10.055   8.019   8.552
28737SOL     OW88217   5.268   0.908  10.056
28737SOL    HW188218   5.265   1.003  10.063
28737SOL    HW288219   5.330   0.891   9.985
28738SOL     OW88220   3.268   2.830   9.046
28738SOL    HW188221   3.211   2.771   8.997
28738SOL    HW288222   3.220   2.913   9.049
28739SOL     OW88223   5.354   2.429   8.007
28739SOL    HW188224   5.420   2.495   8.027
28739SOL    HW288225   5.316   2.406   8.091
28740SOL     OW88226   9.020   4.871   7.504
28740SOL    HW188227   9.016   4.785   7.546
28740SOL    HW288228   8.930   4.889   7.478
28741SOL     OW88229   9.316   7.533   3.782
28741SOL    HW188230   9.354   7.608   3.828
28741SOL    HW288231   9.261   7.490   3.847
28742SOL     OW88232   5.398   2.780  11.015
28742SOL    HW188233   5.420   2.854  11.071
28742SOL    HW288234   5.362   2.819  10.935
28743SOL     OW88235   0.152   8.651   7.610
28743SOL    HW188236   0.178   8.713   7.542
28743SOL    HW288237   0.059   8.668   7.623
28744SOL     OW88238   5.782   3.571   8.914
28744SOL    HW188239   5.744   3.641   8.966
28744SOL    HW288240   5.830   3.517   8.977
28745SOL     OW88241   4.097   1.642   9.838
28745SOL    HW188242   4.154   1.714   9.813
28745SOL    HW288243   4.153   1.584   9.890
28746SOL     OW88244   4.202   8.986   7.981
28746SOL    HW188245   4.233   9.076   7.974
28746SOL    HW288246   4.148   8.985   8.060
28747SOL     OW88247   7.845  10.420   8.546
28747SOL    HW188248   7.870  10.483   8.478
28747SOL    HW288249   7.927  10.401   8.592
28748SOL     OW88250   4.314   2.777   5.512
28748SOL    HW188251   4.340   2.716   5.442
28748SOL    HW288252   4.300   2.860   5.467
28749SOL     OW88253   6.823   9.408   7.418
28749SOL    HW188254   6.757   9.376   7.356
28749SOL    HW288255   6.868   9.328   7.447
28750SOL     OW88256   4.048   1.763   8.653
28750SOL    HW188257   4.042   1.750   8.558
28750SOL    HW288258   4.020   1.679   8.690
28751SOL     OW88259   4.380   5.974   1.497
28751SOL    HW188260   4.383   5.922   1.577
28751SOL    HW288261   4.288   5.973   1.471
28752SOL     OW88262   0.772   3.265   9.850
28752SOL    HW188263   0.851   3.307   9.883
28752SOL    HW288264   0.704   3.331   9.858
28753SOL     OW88265   8.117   1.038   1.389
28753SOL    HW188266   8.043   0.990   1.350
28753SOL    HW288267   8.089   1.129   1.389
28754SOL     OW88268   3.922   5.252  10.122
28754SOL    HW188269   3.979   5.284  10.052
28754SOL    HW288270   3.837   5.241  10.080
28755SOL     OW88271   9.391   2.001  10.189
28755SOL    HW188272   9.373   2.082  10.237
28755SOL    HW288273   9.487   1.994  10.189
28756SOL     OW88274   4.686   1.348   6.869
28756SOL    HW188275   4.641   1.285   6.925
28756SOL    HW288276   4.618   1.383   6.812
28757SOL     OW88277   4.198   8.824   6.303
28757SOL    HW188278   4.255   8.894   6.335
28757SOL    HW288279   4.117   8.868   6.278
28758SOL     OW88280   3.366  10.976  11.028
28758SOL    HW188281   3.341  11.059  11.068
28758SOL    HW288282   3.455  10.991  10.996
28759SOL     OW88283   4.242   9.142   9.270
28759SOL    HW188284   4.237   9.237   9.266
28759SOL    HW288285   4.182   9.112   9.201
28760SOL     OW88286   2.295   9.057   8.894
28760SOL    HW188287   2.282   9.093   8.806
28760SOL    HW288288   2.377   9.096   8.924
28761SOL     OW88289   3.618   1.225   4.170
28761SOL    HW188290   3.691   1.276   4.134
28761SOL    HW288291   3.652   1.135   4.176
28762SOL     OW88292   6.899   2.344   7.613
28762SOL    HW188293   6.900   2.267   7.670
28762SOL    HW288294   6.811   2.344   7.575
28763SOL     OW88295   2.623   0.403   1.673
28763SOL    HW188296   2.646   0.378   1.583
28763SOL    HW288297   2.543   0.454   1.664
28764SOL     OW88298   9.329   5.234   3.506
28764SOL    HW188299   9.252   5.207   3.556
28764SOL    HW288300   9.309   5.209   3.415
28765SOL     OW88301   0.919   0.260   7.582
28765SOL    HW188302   0.965   0.279   7.663
28765SOL    HW288303   0.922   0.164   7.575
28766SOL     OW88304   4.127   3.452   3.149
28766SOL    HW188305   4.123   3.473   3.242
28766SOL    HW288306   4.040   3.418   3.128
28767SOL     OW88307   0.801   0.531   7.267
28767SOL    HW188308   0.863   0.544   7.195
28767SOL    HW288309   0.851   0.550   7.346
28768SOL     OW88310   6.768  10.338   3.774
28768SOL    HW188311   6.737  10.425   3.751
28768SOL    HW288312   6.845  10.324   3.719
28769SOL     OW88313   8.497   4.929   0.204
28769SOL    HW188314   8.439   4.968   0.269
28769SOL    HW288315   8.441   4.914   0.128
28770SOL     OW88316   2.054   2.081   5.468
28770SOL    HW188317   2.077   2.070   5.375
28770SOL    HW288318   2.096   2.163   5.494
28771SOL     OW88319   7.285   0.164   3.694
28771SOL    HW188320   7.304   0.090   3.752
28771SOL    HW288321   7.328   0.238   3.735
28772SOL     OW88322   6.862   4.910   7.338
28772SOL    HW188323   6.929   4.966   7.299
28772SOL    HW288324   6.839   4.848   7.268
28773SOL     OW88325   2.828   5.218   0.381
28773SOL    HW188326   2.808   5.290   0.440
28773SOL    HW288327   2.922   5.201   0.394
28774SOL     OW88328   2.161  10.887   7.965
28774SOL    HW188329   2.154  10.835   7.884
28774SOL    HW288330   2.079  10.936   7.969
28775SOL     OW88331   3.373   7.582   1.033
28775SOL    HW188332   3.385   7.498   1.077
28775SOL    HW288333   3.322   7.560   0.955
28776SOL     OW88334   5.263   8.602   6.419
28776SOL    HW188335   5.295   8.676   6.367
28776SOL    HW288336   5.293   8.620   6.508
28777SOL     OW88337   7.594   6.044   4.079
28777SOL    HW188338   7.594   5.949   4.066
28777SOL    HW288339   7.643   6.078   4.004
28778SOL     OW88340   3.262   0.305   3.620
28778SOL    HW188341   3.215   0.325   3.701
28778SOL    HW288342   3.301   0.388   3.593
28779SOL     OW88343   3.039   6.532   0.362
28779SOL    HW188344   2.955   6.573   0.383
28779SOL    HW288345   3.102   6.574   0.421
28780SOL     OW88346   6.551   0.611   8.128
28780SOL    HW188347   6.475   0.653   8.088
28780SOL    HW288348   6.548   0.638   8.219
28781SOL     OW88349   5.468   1.944   3.134
28781SOL    HW188350   5.557   1.974   3.114
28781SOL    HW288351   5.478   1.849   3.148
28782SOL     OW88352   0.238   0.408  10.503
28782SOL    HW188353   0.211   0.342  10.439
28782SOL    HW288354   0.310   0.367  10.551
28783SOL     OW88355   4.277   3.818   3.299
28783SOL    HW188356   4.199   3.858   3.260
28783SOL    HW288357   4.290   3.865   3.381
28784SOL     OW88358  10.032   9.295  10.401
28784SOL    HW188359   9.995   9.382  10.387
28784SOL    HW288360  10.100   9.287  10.334
28785SOL     OW88361   9.345   0.179   8.639
28785SOL    HW188362   9.375   0.109   8.697
28785SOL    HW288363   9.250   0.169   8.636
28786SOL     OW88364   4.186   7.871   2.706
28786SOL    HW188365   4.100   7.862   2.664
28786SOL    HW288366   4.246   7.822   2.648
28787SOL     OW88367   5.754   6.465   8.640
28787SOL    HW188368   5.723   6.530   8.577
28787SOL    HW288369   5.835   6.502   8.674
28788SOL     OW88370   6.630   7.983   9.544
28788SOL    HW188371   6.598   7.895   9.522
28788SOL    HW288372   6.579   8.009   9.621
28789SOL     OW88373   1.617   3.344   9.317
28789SOL    HW188374   1.541   3.313   9.268
28789SOL    HW288375   1.606   3.439   9.322
28790SOL     OW88376   9.989   7.055   1.025
28790SOL    HW188377   9.988   6.959   1.027
28790SOL    HW288378   9.945   7.081   1.106
28791SOL     OW88379   5.377   2.576   9.165
28791SOL    HW188380   5.381   2.663   9.126
28791SOL    HW288381   5.318   2.585   9.239
28792SOL     OW88382   9.948   0.863   4.993
28792SOL    HW188383   9.970   0.896   4.906
28792SOL    HW288384   9.900   0.782   4.976
28793SOL     OW88385   8.229   9.559   5.974
28793SOL    HW188386   8.304   9.521   6.020
28793SOL    HW288387   8.215   9.501   5.899
28794SOL     OW88388   4.898  10.451   0.245
28794SOL    HW188389   4.947  10.390   0.300
28794SOL    HW288390   4.874  10.523   0.303
28795SOL     OW88391   0.111   7.712   4.594
28795SOL    HW188392   0.169   7.780   4.560
28795SOL    HW288393   0.164   7.632   4.592
28796SOL     OW88394   7.104   7.931   9.138
28796SOL    HW188395   7.133   7.931   9.046
28796SOL    HW288396   7.172   7.882   9.184
28797SOL     OW88397   7.187   0.136  10.509
28797SOL    HW188398   7.168   0.101  10.596
28797SOL    HW288399   7.178   0.060  10.450
28798SOL     OW88400   6.412   8.003   4.250
28798SOL    HW188401   6.413   7.910   4.225
28798SOL    HW288402   6.320   8.022   4.267
28799SOL     OW88403  10.617   8.700   8.792
28799SOL    HW188404  10.558   8.736   8.858
28799SOL    HW288405  10.633   8.772   8.731
28800SOL     OW88406  10.973   7.134   6.490
28800SOL    HW188407  10.929   7.173   6.414
28800SOL    HW288408  11.057   7.180   6.495
28801SOL     OW88409   1.728   6.979   6.694
28801SOL    HW188410   1.680   6.967   6.612
28801SOL    HW288411   1.819   6.963   6.670
28802SOL     OW88412   8.186   6.399   9.481
28802SOL    HW188413   8.261   6.373   9.535
28802SOL    HW288414   8.129   6.449   9.539
28803SOL     OW88415   9.198   7.579   1.491
28803SOL    HW188416   9.244   7.601   1.572
28803SOL    HW288417   9.160   7.661   1.461
28804SOL     OW88418  10.475   8.124   5.085
28804SOL    HW188419  10.390   8.168   5.087
28804SOL    HW288420  10.520   8.162   5.009
28805SOL     OW88421   7.798   6.250   3.332
28805SOL    HW188422   7.778   6.223   3.242
28805SOL    HW288423   7.713   6.251   3.376
28806SOL     OW88424   6.387   1.947   6.613
28806SOL    HW188425   6.465   1.993   6.643
28806SOL    HW288426   6.336   2.014   6.568
28807SOL     OW88427   0.942  10.436   6.304
28807SOL    HW188428   0.903  10.523   6.297
28807SOL    HW288429   1.021  10.449   6.356
28808SOL     OW88430   4.286   0.561   9.758
28808SOL    HW188431   4.211   0.588   9.811
28808SOL    HW288432   4.342   0.512   9.818
28809SOL     OW88433   6.940   0.425   6.388
28809SOL    HW188434   6.939   0.490   6.458
28809SOL    HW288435   7.033   0.406   6.374
28810SOL     OW88436   6.965   6.818   4.193
28810SOL    HW188437   6.961   6.815   4.097
28810SOL    HW288438   7.008   6.736   4.218
28811SOL     OW88439   9.880   7.890   9.963
28811SOL    HW188440   9.913   7.973   9.929
28811SOL    HW288441   9.867   7.836   9.884
28812SOL     OW88442   1.596   3.864   2.985
28812SOL    HW188443   1.521   3.874   2.927
28812SOL    HW288444   1.634   3.951   2.990
28813SOL     OW88445   1.294   8.327   8.061
28813SOL    HW188446   1.366   8.275   8.024
28813SOL    HW288447   1.220   8.308   8.004
28814SOL     OW88448   6.710  10.914   6.277
28814SOL    HW188449   6.706  10.822   6.250
28814SOL    HW288450   6.779  10.916   6.343
28815SOL     OW88451   2.894   4.483   8.661
28815SOL    HW188452   2.814   4.445   8.625
28815SOL    HW288453   2.866   4.566   8.699
28816SOL     OW88454   3.875   5.085   1.040
28816SOL    HW188455   3.802   5.026   1.061
28816SOL    HW288456   3.943   5.027   1.005
28817SOL     OW88457   8.320   2.662   5.790
28817SOL    HW188458   8.306   2.574   5.753
28817SOL    HW288459   8.250   2.673   5.854
28818SOL     OW88460   4.974   9.277   8.608
28818SOL    HW188461   5.044   9.315   8.554
28818SOL    HW288462   4.985   9.317   8.694
28819SOL     OW88463  10.990   4.906   2.209
28819SOL    HW188464  11.062   4.949   2.162
28819SOL    HW288465  10.911   4.931   2.161
28820SOL     OW88466   5.953   1.742   4.407
28820SOL    HW188467   5.996   1.679   4.465
28820SOL    HW288468   5.978   1.714   4.319
28821SOL     OW88469   3.823   2.813   8.204
28821SOL    HW188470   3.759   2.810   8.133
28821SOL    HW288471   3.907   2.798   8.161
28822SOL     OW88472   5.836   4.831  10.888
28822SOL    HW188473   5.832   4.834  10.983
28822SOL    HW288474   5.843   4.737  10.867
28823SOL     OW88475  10.432   3.667  10.351
28823SOL    HW188476  10.368   3.602  10.321
28823SOL    HW288477  10.469   3.629  10.430
28824SOL     OW88478   9.305   8.799  10.870
28824SOL    HW188479   9.220   8.831  10.839
28824SOL    HW288480   9.364   8.873  10.858
28825SOL     OW88481   1.982   0.657   5.425
28825SOL    HW188482   1.952   0.717   5.357
28825SOL    HW288483   1.902   0.619   5.460
28826SOL     OW88484   4.003   4.821   1.395
28826SOL    HW188485   3.952   4.793   1.319
28826SOL    HW288486   4.026   4.912   1.376
28827SOL     OW88487   8.080   7.454   1.218
28827SOL    HW188488   8.002   7.427   1.170
28827SOL    HW288489   8.063   7.427   1.308
28828SOL     OW88490   1.493  10.584   0.119
28828SOL    HW188491   1.490  10.489   0.131
28828SOL    HW288492   1.579  10.610   0.154
28829SOL     OW88493   5.706   7.973   7.467
28829SOL    HW188494   5.636   7.951   7.528
28829SOL    HW288495   5.706   7.901   7.404
28830SOL     OW88496   9.034   2.128  10.852
28830SOL    HW188497   8.992   2.059  10.903
28830SOL    HW288498   9.057   2.086  10.769
28831SOL     OW88499   7.407  10.549  10.494
28831SOL    HW188500   7.485  10.585  10.452
28831SOL    HW288501   7.354  10.516  10.421
28832SOL     OW88502   1.935   7.820   8.935
28832SOL    HW188503   1.959   7.884   9.002
28832SOL    HW288504   1.940   7.868   8.852
28833SOL     OW88505   4.409   7.663   0.027
28833SOL    HW188506   4.395   7.715   0.106
28833SOL    HW288507   4.451   7.583   0.058
28834SOL     OW88508   6.147   7.147   4.596
28834SOL    HW188509   6.053   7.145   4.613
28834SOL    HW288510   6.158   7.215   4.529
28835SOL     OW88511   5.788   4.076   0.671
28835SOL    HW188512   5.829   4.074   0.584
28835SOL    HW288513   5.861   4.075   0.732
28836SOL     OW88514   9.522   7.438   4.834
28836SOL    HW188515   9.434   7.436   4.872
28836SOL    HW288516   9.548   7.530   4.838
28837SOL     OW88517   0.163   9.444   9.611
28837SOL    HW188518   0.219   9.465   9.685
28837SOL    HW288519   0.215   9.469   9.534
28838SOL     OW88520   3.158  10.165   8.674
28838SOL    HW188521   3.088  10.108   8.643
28838SOL    HW288522   3.231  10.146   8.614
28839SOL     OW88523  10.940   4.173   1.138
28839SOL    HW188524  10.919   4.088   1.100
28839SOL    HW288525  10.857   4.220   1.140
28840SOL     OW88526   7.790   5.793   9.544
28840SOL    HW188527   7.871   5.786   9.595
28840SOL    HW288528   7.733   5.850   9.596
28841SOL     OW88529   2.830  10.264   1.791
28841SOL    HW188530   2.892  10.209   1.839
28841SOL    HW288531   2.774  10.302   1.859
28842SOL     OW88532  10.537   4.861   2.150
28842SOL    HW188533  10.506   4.938   2.102
28842SOL    HW288534  10.509   4.786   2.096
28843SOL     OW88535   7.364   7.582   6.201
28843SOL    HW188536   7.303   7.652   6.224
28843SOL    HW288537   7.439   7.594   6.259
28844SOL     OW88538   8.262   4.294   4.230
28844SOL    HW188539   8.297   4.325   4.313
28844SOL    HW288540   8.183   4.246   4.253
28845SOL     OW88541   7.829   7.376   6.021
28845SOL    HW188542   7.884   7.449   5.992
28845SOL    HW288543   7.748   7.385   5.970
28846SOL     OW88544   2.355   4.264   4.996
28846SOL    HW188545   2.365   4.359   4.996
28846SOL    HW288546   2.379   4.237   4.907
28847SOL     OW88547   4.744  10.427   9.219
28847SOL    HW188548   4.706  10.340   9.227
28847SOL    HW288549   4.709  10.461   9.136
28848SOL     OW88550   2.972   7.940   0.719
28848SOL    HW188551   2.905   7.954   0.652
28848SOL    HW288552   3.033   8.012   0.707
28849SOL     OW88553   9.521   6.162   3.251
28849SOL    HW188554   9.567   6.078   3.253
28849SOL    HW288555   9.443   6.148   3.305
28850SOL     OW88556   6.881   7.751   9.555
28850SOL    HW188557   6.917   7.740   9.467
28850SOL    HW288558   6.786   7.748   9.543
28851SOL     OW88559   3.678   8.808  10.852
28851SOL    HW188560   3.727   8.743  10.902
28851SOL    HW288561   3.660   8.765  10.768
28852SOL     OW88562   5.596   7.931   5.220
28852SOL    HW188563   5.557   7.940   5.133
28852SOL    HW288564   5.604   7.836   5.233
28853SOL     OW88565   7.108   1.136   6.034
28853SOL    HW188566   7.164   1.210   6.058
28853SOL    HW288567   7.079   1.100   6.117
28854SOL     OW88568   9.457   0.093   8.377
28854SOL    HW188569   9.371   0.120   8.344
28854SOL    HW288570   9.438   0.049   8.460
28855SOL     OW88571   7.440   6.439   3.907
28855SOL    HW188572   7.521   6.402   3.871
28855SOL    HW288573   7.385   6.362   3.923
28856SOL     OW88574   4.255   0.541   0.964
28856SOL    HW188575   4.306   0.620   0.982
28856SOL    HW288576   4.316   0.482   0.919
28857SOL     OW88577   1.953   9.120   6.507
28857SOL    HW188578   1.866   9.123   6.467
28857SOL    HW288579   1.982   9.030   6.493
28858SOL     OW88580   9.398   9.445   5.259
28858SOL    HW188581   9.392   9.451   5.163
28858SOL    HW288582   9.391   9.535   5.289
28859SOL     OW88583   9.885   0.752  10.250
28859SOL    HW188584   9.897   0.719  10.161
28859SOL    HW288585   9.913   0.679  10.306
28860SOL     OW88586  11.086   3.100   6.102
28860SOL    HW188587  11.024   3.118   6.172
28860SOL    HW288588  11.159   3.159   6.118
28861SOL     OW88589   3.350   4.883   7.322
28861SOL    HW188590   3.420   4.873   7.387
28861SOL    HW288591   3.362   4.971   7.286
28862SOL     OW88592   8.750   2.967   7.822
28862SOL    HW188593   8.821   2.915   7.782
28862SOL    HW288594   8.793   3.047   7.853
28863SOL     OW88595   2.129   5.757   2.760
28863SOL    HW188596   2.052   5.805   2.789
28863SOL    HW288597   2.150   5.699   2.833
28864SOL     OW88598   5.689   8.758   1.447
28864SOL    HW188599   5.746   8.711   1.508
28864SOL    HW288600   5.602   8.751   1.485
28865SOL     OW88601   6.438   9.145   6.853
28865SOL    HW188602   6.353   9.101   6.853
28865SOL    HW288603   6.501   9.075   6.873
28866SOL     OW88604   8.246   8.146   5.871
28866SOL    HW188605   8.283   8.229   5.900
28866SOL    HW288606   8.296   8.123   5.793
28867SOL     OW88607  10.672  10.101   6.002
28867SOL    HW188608  10.601  10.055   5.957
28867SOL    HW288609  10.709  10.035   6.061
28868SOL     OW88610   8.303   8.391   5.974
28868SOL    HW188611   8.390   8.386   6.013
28868SOL    HW288612   8.248   8.430   6.041
28869SOL     OW88613   0.451   7.843   6.703
28869SOL    HW188614   0.366   7.877   6.731
28869SOL    HW288615   0.490   7.914   6.652
28870SOL     OW88616   0.104   6.873   8.059
28870SOL    HW188617   0.087   6.966   8.070
28870SOL    HW288618   0.199   6.865   8.064
28871SOL     OW88619   8.163   0.691   9.736
28871SOL    HW188620   8.187   0.714   9.646
28871SOL    HW288621   8.165   0.774   9.783
28872SOL     OW88622   1.528   3.598   9.289
28872SOL    HW188623   1.503   3.682   9.326
28872SOL    HW288624   1.556   3.618   9.199
28873SOL     OW88625   5.314   1.556   0.529
28873SOL    HW188626   5.311   1.464   0.555
28873SOL    HW288627   5.383   1.594   0.583
28874SOL     OW88628   3.583   3.671   7.336
28874SOL    HW188629   3.573   3.708   7.423
28874SOL    HW288630   3.494   3.648   7.309
28875SOL     OW88631   5.217  10.560   0.217
28875SOL    HW188632   5.240  10.515   0.135
28875SOL    HW288633   5.192  10.648   0.189
28876SOL     OW88634   9.374   3.833   4.055
28876SOL    HW188635   9.423   3.914   4.065
28876SOL    HW288636   9.390   3.784   4.136
28877SOL     OW88637   9.719   7.891   0.007
28877SOL    HW188638   9.719   7.809  -0.043
28877SOL    HW288639   9.639   7.935  -0.019
28878SOL     OW88640   5.760   5.550   1.480
28878SOL    HW188641   5.685   5.506   1.440
28878SOL    HW288642   5.786   5.616   1.416
28879SOL     OW88643   8.745   9.023   7.238
28879SOL    HW188644   8.816   8.991   7.294
28879SOL    HW288645   8.773   8.998   7.149
28880SOL     OW88646   7.707   2.107   0.471
28880SOL    HW188647   7.771   2.169   0.505
28880SOL    HW288648   7.709   2.034   0.533
28881SOL     OW88649   5.799   1.500   0.116
28881SOL    HW188650   5.727   1.443   0.143
28881SOL    HW288651   5.768   1.542   0.036
28882SOL     OW88652   7.771   9.036   7.144
28882SOL    HW188653   7.866   9.038   7.130
28882SOL    HW288654   7.741   8.959   7.096
28883SOL     OW88655   1.038   5.701  10.475
28883SOL    HW188656   1.091   5.683  10.552
28883SOL    HW288657   1.070   5.785  10.443
28884SOL     OW88658   5.753  10.525   9.522
28884SOL    HW188659   5.766  10.430   9.523
28884SOL    HW288660   5.669  10.537   9.478
28885SOL     OW88661   6.988  10.909   3.413
28885SOL    HW188662   7.031  10.936   3.331
28885SOL    HW288663   6.922  10.977   3.428
28886SOL     OW88664   7.352   6.699   3.556
28886SOL    HW188665   7.286   6.644   3.597
28886SOL    HW288666   7.345   6.678   3.462
28887SOL     OW88667  10.625   1.870   1.947
28887SOL    HW188668  10.544   1.840   1.905
28887SOL    HW288669  10.618   1.840   2.037
28888SOL     OW88670   6.608   7.410   4.324
28888SOL    HW188671   6.682   7.429   4.266
28888SOL    HW288672   6.636   7.442   4.409
28889SOL     OW88673   5.083   9.877  10.038
28889SOL    HW188674   5.165   9.866   9.990
28889SOL    HW288675   5.061   9.788  10.068
28890SOL     OW88676   0.743  10.713   9.412
28890SOL    HW188677   0.718  10.662   9.335
28890SOL    HW288678   0.686  10.790   9.408
28891SOL     OW88679   6.578   1.739   3.287
28891SOL    HW188680   6.570   1.666   3.349
28891SOL    HW288681   6.507   1.725   3.224
28892SOL     OW88682   1.279   9.282   7.295
28892SOL    HW188683   1.206   9.280   7.357
28892SOL    HW288684   1.349   9.233   7.338
28893SOL     OW88685   3.825  10.844  10.108
28893SOL    HW188686   3.757  10.869  10.045
28893SOL    HW288687   3.902  10.826  10.053
28894SOL     OW88688   8.393   7.171  10.281
28894SOL    HW188689   8.398   7.107  10.209
28894SOL    HW288690   8.308   7.154  10.322
28895SOL     OW88691   4.330   8.820   1.456
28895SOL    HW188692   4.354   8.727   1.458
28895SOL    HW288693   4.323   8.845   1.548
28896SOL     OW88694  10.142   7.338   0.202
28896SOL    HW188695  10.209   7.369   0.263
28896SOL    HW288696  10.178   7.257   0.166
28897SOL     OW88697   0.931  10.165   1.997
28897SOL    HW188698   0.932  10.122   1.911
28897SOL    HW288699   1.023  10.179   2.017
28898SOL     OW88700   5.113   9.928  10.704
28898SOL    HW188701   5.064   9.999  10.663
28898SOL    HW288702   5.145   9.875  10.630
28899SOL     OW88703   6.872   7.179   4.084
28899SOL    HW188704   6.887   7.230   4.004
28899SOL    HW288705   6.778   7.161   4.083
28900SOL     OW88706   9.641   2.375   2.453
28900SOL    HW188707   9.672   2.394   2.541
28900SOL    HW288708   9.621   2.460   2.415
28901SOL     OW88709   5.887   8.174   7.933
28901SOL    HW188710   5.831   8.182   8.010
28901SOL    HW288711   5.827   8.184   7.859
28902SOL     OW88712   2.160   1.287  10.026
28902SOL    HW188713   2.174   1.377   9.998
28902SOL    HW288714   2.071   1.267   9.998
28903SOL     OW88715   9.157   1.745   8.224
28903SOL    HW188716   9.235   1.701   8.259
28903SOL    HW288717   9.133   1.809   8.291
28904SOL     OW88718   7.910   6.978   7.979
28904SOL    HW188719   7.976   6.911   7.962
28904SOL    HW288720   7.933   7.013   8.064
28905SOL     OW88721   9.966   8.455   4.958
28905SOL    HW188722   9.965   8.412   4.872
28905SOL    HW288723  10.036   8.520   4.952
28906SOL     OW88724   3.983  10.686   7.036
28906SOL    HW188725   3.926  10.712   7.108
28906SOL    HW288726   3.967  10.592   7.026
28907SOL     OW88727   4.036   9.689   8.327
28907SOL    HW188728   3.980   9.642   8.389
28907SOL    HW288729   4.109   9.629   8.310
28908SOL     OW88730   0.217   0.966   3.666
28908SOL    HW188731   0.270   1.023   3.721
28908SOL    HW288732   0.276   0.936   3.597
28909SOL     OW88733  10.943   3.122   8.070
28909SOL    HW188734  10.890   3.130   8.149
28909SOL    HW288735  10.946   3.210   8.033
28910SOL     OW88736   6.748  10.887   9.453
28910SOL    HW188737   6.667  10.838   9.466
28910SOL    HW288738   6.737  10.967   9.505
28911SOL     OW88739   4.663   1.499   3.220
28911SOL    HW188740   4.636   1.495   3.311
28911SOL    HW288741   4.581   1.502   3.170
28912SOL     OW88742   8.977   9.109  10.319
28912SOL    HW188743   9.060   9.070  10.348
28912SOL    HW288744   8.912   9.040  10.334
28913SOL     OW88745   7.647   3.288   4.163
28913SOL    HW188746   7.630   3.378   4.136
28913SOL    HW288747   7.567   3.240   4.142
28914SOL     OW88748   0.586   0.145   2.232
28914SOL    HW188749   0.624   0.062   2.202
28914SOL    HW288750   0.518   0.119   2.294
28915SOL     OW88751   3.927   9.609   5.531
28915SOL    HW188752   3.904   9.700   5.511
28915SOL    HW288753   3.920   9.564   5.446
28916SOL     OW88754   9.892   7.692   7.073
28916SOL    HW188755   9.801   7.721   7.081
28916SOL    HW288756   9.891   7.601   7.102
28917SOL     OW88757   8.861   1.590  10.292
28917SOL    HW188758   8.861   1.570  10.198
28917SOL    HW288759   8.951   1.573  10.320
28918SOL     OW88760   8.011   8.645  11.080
28918SOL    HW188761   8.040   8.633  10.989
28918SOL    HW288762   8.076   8.703  11.119
28919SOL     OW88763   6.008   9.841   5.936
28919SOL    HW188764   6.057   9.900   5.993
28919SOL    HW288765   6.031   9.753   5.966
28920SOL     OW88766  11.064   6.988   3.759
28920SOL    HW188767  10.992   6.932   3.788
28920SOL    HW288768  11.047   7.002   3.666
28921SOL     OW88769   0.924   3.140   7.105
28921SOL    HW188770   0.928   3.235   7.098
28921SOL    HW288771   0.897   3.123   7.195
28922SOL     OW88772   5.024   2.313   7.384
28922SOL    HW188773   5.065   2.397   7.402
28922SOL    HW288774   5.053   2.256   7.455
28923SOL     OW88775  10.253   9.806   3.786
28923SOL    HW188776  10.186   9.870   3.762
28923SOL    HW288777  10.315   9.855   3.840
28924SOL     OW88778   6.114   4.601   0.205
28924SOL    HW188779   6.199   4.637   0.178
28924SOL    HW288780   6.119   4.508   0.181
28925SOL     OW88781   1.157   2.936   1.646
28925SOL    HW188782   1.191   3.024   1.632
28925SOL    HW288783   1.074   2.934   1.598
28926SOL     OW88784   1.862   0.530   9.324
28926SOL    HW188785   1.806   0.602   9.294
28926SOL    HW288786   1.809   0.485   9.390
28927SOL     OW88787   6.859   3.541   3.212
28927SOL    HW188788   6.813   3.512   3.291
28927SOL    HW288789   6.952   3.536   3.235
28928SOL     OW88790   9.692   0.803   2.412
28928SOL    HW188791   9.752   0.877   2.420
28928SOL    HW288792   9.748   0.730   2.386
28929SOL     OW88793   3.029   1.821   9.909
28929SOL    HW188794   3.075   1.737   9.909
28929SOL    HW288795   3.003   1.834  10.000
28930SOL     OW88796   3.681   8.819   1.094
28930SOL    HW188797   3.693   8.903   1.138
28930SOL    HW288798   3.768   8.779   1.094
28931SOL     OW88799   6.911   6.957   6.919
28931SOL    HW188800   6.925   7.042   6.879
28931SOL    HW288801   6.836   6.969   6.976
28932SOL     OW88802   1.456   9.649   1.969
28932SOL    HW188803   1.396   9.595   1.918
28932SOL    HW288804   1.540   9.643   1.922
28933SOL     OW88805   7.402   8.798   9.462
28933SOL    HW188806   7.427   8.706   9.454
28933SOL    HW288807   7.308   8.799   9.447
28934SOL     OW88808   8.092   7.892   0.287
28934SOL    HW188809   8.150   7.824   0.322
28934SOL    HW288810   8.151   7.958   0.251
28935SOL     OW88811   8.791  10.213   8.456
28935SOL    HW188812   8.776  10.121   8.435
28935SOL    HW288813   8.731  10.231   8.528
28936SOL     OW88814   1.388   8.491  10.435
28936SOL    HW188815   1.370   8.407  10.393
28936SOL    HW288816   1.483   8.500  10.430
28937SOL     OW88817   1.003   2.866   6.580
28937SOL    HW188818   0.971   2.881   6.669
28937SOL    HW288819   1.014   2.953   6.543
28938SOL     OW88820   9.708  10.090   1.951
28938SOL    HW188821   9.678  10.008   1.911
28938SOL    HW288822   9.629  10.130   1.987
28939SOL     OW88823   8.443   4.205   8.982
28939SOL    HW188824   8.432   4.292   9.019
28939SOL    HW288825   8.536   4.200   8.958
28940SOL     OW88826   4.411   4.318   3.731
28940SOL    HW188827   4.483   4.260   3.758
28940SOL    HW288828   4.332   4.264   3.740
28941SOL     OW88829   9.104   8.766   0.051
28941SOL    HW188830   9.102   8.784  -0.043
28941SOL    HW288831   9.080   8.849   0.092
28942SOL     OW88832   6.836   5.454   1.842
28942SOL    HW188833   6.894   5.479   1.770
28942SOL    HW288834   6.807   5.536   1.880
28943SOL     OW88835   2.068   2.763   2.648
28943SOL    HW188836   2.105   2.815   2.718
28943SOL    HW288837   1.974   2.782   2.650
28944SOL     OW88838   6.431   7.222   8.817
28944SOL    HW188839   6.478   7.138   8.814
28944SOL    HW288840   6.433   7.248   8.909
28945SOL     OW88841   8.258   1.049   8.328
28945SOL    HW188842   8.348   1.017   8.337
28945SOL    HW288843   8.260   1.104   8.250
28946SOL     OW88844   7.240   9.053   6.521
28946SOL    HW188845   7.165   8.998   6.498
28946SOL    HW288846   7.203   9.140   6.534
28947SOL     OW88847  10.865   5.153   2.120
28947SOL    HW188848  10.884   5.245   2.105
28947SOL    HW288849  10.795   5.153   2.185
28948SOL     OW88850   7.168  10.717   4.705
28948SOL    HW188851   7.189  10.805   4.673
28948SOL    HW288852   7.248  10.688   4.749
28949SOL     OW88853   7.550   9.444   0.927
28949SOL    HW188854   7.506   9.396   0.856
28949SOL    HW288855   7.630   9.394   0.943
28950SOL     OW88856   7.017   8.968   8.524
28950SOL    HW188857   6.997   8.895   8.583
28950SOL    HW288858   7.110   8.986   8.539
28951SOL     OW88859   0.598   4.703   1.720
28951SOL    HW188860   0.555   4.786   1.740
28951SOL    HW288861   0.688   4.714   1.751
28952SOL     OW88862   3.572  10.224   0.873
28952SOL    HW188863   3.587  10.298   0.814
28952SOL    HW288864   3.499  10.251   0.927
28953SOL     OW88865   6.249   6.810   7.088
28953SOL    HW188866   6.306   6.841   7.017
28953SOL    HW288867   6.184   6.879   7.099
28954SOL     OW88868   9.496  11.053   3.138
28954SOL    HW188869   9.547  11.035   3.059
28954SOL    HW288870   9.436  10.979   3.145
28955SOL     OW88871   3.901  10.466   8.150
28955SOL    HW188872   3.927  10.509   8.068
28955SOL    HW288873   3.905  10.535   8.216
28956SOL     OW88874  10.268   1.719   0.287
28956SOL    HW188875  10.346   1.763   0.254
28956SOL    HW288876  10.291   1.692   0.376
28957SOL     OW88877  10.356   8.510  10.683
28957SOL    HW188878  10.432   8.510  10.741
28957SOL    HW288879  10.372   8.437  10.622
28958SOL     OW88880   3.110   1.276   4.811
28958SOL    HW188881   3.095   1.195   4.762
28958SOL    HW288882   3.066   1.344   4.760
28959SOL     OW88883   8.764   1.699   1.655
28959SOL    HW188884   8.800   1.744   1.579
28959SOL    HW288885   8.733   1.615   1.620
28960SOL     OW88886  10.171   9.125   0.085
28960SOL    HW188887  10.149   9.076   0.006
28960SOL    HW288888  10.196   9.058   0.149
28961SOL     OW88889   5.510   6.351   7.388
28961SOL    HW188890   5.483   6.272   7.340
28961SOL    HW288891   5.429   6.399   7.402
28962SOL     OW88892   5.556   2.069   0.197
28962SOL    HW188893   5.514   2.148   0.163
28962SOL    HW288894   5.521   2.060   0.286
28963SOL     OW88895   0.472   5.143   6.091
28963SOL    HW188896   0.515   5.212   6.041
28963SOL    HW288897   0.399   5.186   6.135
28964SOL     OW88898   7.890   8.281  10.772
28964SOL    HW188899   7.874   8.282  10.866
28964SOL    HW288900   7.836   8.209  10.739
28965SOL     OW88901   7.341   4.867   0.991
28965SOL    HW188902   7.322   4.864   0.897
28965SOL    HW288903   7.301   4.948   1.021
28966SOL     OW88904   7.430   7.538   6.615
28966SOL    HW188905   7.497   7.494   6.561
28966SOL    HW288906   7.480   7.586   6.681
28967SOL     OW88907   5.095   1.576  11.063
28967SOL    HW188908   5.057   1.636  11.126
28967SOL    HW288909   5.152   1.631  11.009
28968SOL     OW88910   7.843   2.638   5.165
28968SOL    HW188911   7.774   2.628   5.099
28968SOL    HW288912   7.814   2.711   5.219
28969SOL     OW88913   9.202   5.812   2.204
28969SOL    HW188914   9.132   5.856   2.155
28969SOL    HW288915   9.218   5.868   2.279
28970SOL     OW88916   6.541   8.968   5.687
28970SOL    HW188917   6.551   8.987   5.593
28970SOL    HW288918   6.626   8.991   5.725
28971SOL     OW88919   5.593   0.703   0.710
28971SOL    HW188920   5.627   0.676   0.624
28971SOL    HW288921   5.534   0.776   0.690
28972SOL     OW88922   7.047   0.362   8.219
28972SOL    HW188923   6.954   0.383   8.214
28972SOL    HW288924   7.091   0.447   8.222
28973SOL     OW88925   7.777  10.962   5.546
28973SOL    HW188926   7.746  11.039   5.593
28973SOL    HW288927   7.719  10.891   5.573
28974SOL     OW88928  10.112   5.402   9.080
28974SOL    HW188929  10.087   5.369   9.166
28974SOL    HW288930  10.205   5.380   9.072
28975SOL     OW88931   9.595   2.939   9.112
28975SOL    HW188932   9.687   2.951   9.137
28975SOL    HW288933   9.566   2.863   9.163
28976SOL     OW88934   6.167   6.961   7.621
28976SOL    HW188935   6.090   6.910   7.646
28976SOL    HW288936   6.133   7.045   7.592
28977SOL     OW88937   2.742   6.939   9.155
28977SOL    HW188938   2.737   6.915   9.062
28977SOL    HW288939   2.651   6.950   9.182
28978SOL     OW88940   8.289   9.097   5.508
28978SOL    HW188941   8.355   9.154   5.547
28978SOL    HW288942   8.326   9.072   5.423
28979SOL     OW88943   3.634   1.944   9.733
28979SOL    HW188944   3.715   1.893   9.731
28979SOL    HW288945   3.644   2.008   9.662
28980SOL     OW88946   3.040   4.557  10.157
28980SOL    HW188947   2.956   4.577  10.197
28980SOL    HW288948   3.021   4.552  10.063
28981SOL     OW88949   1.507   2.882   1.380
28981SOL    HW188950   1.458   2.850   1.304
28981SOL    HW288951   1.456   2.853   1.455
28982SOL     OW88952   6.456   7.304   2.664
28982SOL    HW188953   6.470   7.389   2.704
28982SOL    HW288954   6.544   7.275   2.638
28983SOL     OW88955   5.286  10.032   8.297
28983SOL    HW188956   5.290   9.939   8.322
28983SOL    HW288957   5.276  10.079   8.379
28984SOL     OW88958   0.425   2.908  11.018
28984SOL    HW188959   0.483   2.836  11.043
28984SOL    HW288960   0.417   2.900  10.923
28985SOL     OW88961   4.671   8.245   9.486
28985SOL    HW188962   4.686   8.332   9.448
28985SOL    HW288963   4.600   8.208   9.433
28986SOL     OW88964   7.766   9.788   8.709
28986SOL    HW188965   7.712   9.739   8.771
28986SOL    HW288966   7.837   9.825   8.761
28987SOL     OW88967   0.288   0.653   2.758
28987SOL    HW188968   0.210   0.640   2.812
28987SOL    HW288969   0.319   0.564   2.740
28988SOL     OW88970   8.949   8.170   3.634
28988SOL    HW188971   9.023   8.221   3.667
28988SOL    HW288972   8.987   8.115   3.564
28989SOL     OW88973   6.223  10.662  10.801
28989SOL    HW188974   6.315  10.651  10.824
28989SOL    HW288975   6.224  10.677  10.706
28990SOL     OW88976   5.760  10.597   4.294
28990SOL    HW188977   5.850  10.602   4.260
28990SOL    HW288978   5.770  10.582   4.388
28991SOL     OW88979   6.049   9.623   6.799
28991SOL    HW188980   6.005   9.706   6.786
28991SOL    HW288981   6.054   9.613   6.894
28992SOL     OW88982   3.169   9.266   1.225
28992SOL    HW188983   3.093   9.210   1.208
28992SOL    HW288984   3.234   9.238   1.160
28993SOL     OW88985   9.834   9.322   1.764
28993SOL    HW188986   9.831   9.261   1.837
28993SOL    HW288987   9.912   9.296   1.715
28994SOL     OW88988   2.826   5.924   3.533
28994SOL    HW188989   2.822   5.879   3.448
28994SOL    HW288990   2.735   5.937   3.557
28995SOL     OW88991   4.945   2.334   8.444
28995SOL    HW188992   4.964   2.254   8.494
28995SOL    HW288993   4.851   2.331   8.429
28996SOL     OW88994  11.049   5.427   2.874
28996SOL    HW188995  11.075   5.431   2.966
28996SOL    HW288996  11.127   5.453   2.825
28997SOL     OW88997   7.995   2.960   3.607
28997SOL    HW188998   7.969   2.872   3.634
28997SOL    HW288999   7.961   2.969   3.518
28998SOL     OW89000   1.580   2.847   0.163
28998SOL    HW189001   1.614   2.780   0.223
28998SOL    HW289002   1.502   2.881   0.207
28999SOL     OW89003   3.876   6.717   9.306
28999SOL    HW189004   3.829   6.789   9.348
28999SOL    HW289005   3.875   6.646   9.370
29000SOL     OW89006   0.219   9.341   5.080
29000SOL    HW189007   0.189   9.260   5.038
29000SOL    HW289008   0.139   9.392   5.092
29001SOL     OW89009   3.335   7.550  10.125
29001SOL    HW189010   3.382   7.518  10.047
29001SOL    HW289011   3.306   7.470  10.169
29002SOL     OW89012   8.320   7.404   0.330
29002SOL    HW189013   8.357   7.348   0.261
29002SOL    HW289014   8.382   7.476   0.339
29003SOL     OW89015   6.335   6.751   4.491
29003SOL    HW189016   6.294   6.803   4.422
29003SOL    HW289017   6.278   6.762   4.567
29004SOL     OW89018  10.863   3.697   8.880
29004SOL    HW189019  10.855   3.764   8.948
29004SOL    HW289020  10.792   3.635   8.898
29005SOL     OW89021   1.042   6.447   2.336
29005SOL    HW189022   1.026   6.528   2.288
29005SOL    HW289023   1.025   6.468   2.427
29006SOL     OW89024   8.900   1.107   2.539
29006SOL    HW189025   8.900   1.027   2.486
29006SOL    HW289026   8.964   1.164   2.496
29007SOL     OW89027   7.389   1.276   0.644
29007SOL    HW189028   7.405   1.320   0.560
29007SOL    HW289029   7.317   1.325   0.684
29008SOL     OW89030  10.035  10.181   1.168
29008SOL    HW189031   9.995  10.109   1.217
29008SOL    HW289032   9.989  10.181   1.084
29009SOL     OW89033   5.990   0.068   2.809
29009SOL    HW189034   6.000   0.039   2.718
29009SOL    HW289035   6.080   0.076   2.842
29010SOL     OW89036   8.068   7.642   7.970
29010SOL    HW189037   8.088   7.699   8.043
29010SOL    HW289038   8.147   7.590   7.958
29011SOL     OW89039   3.014   8.641   1.606
29011SOL    HW189040   3.102   8.651   1.642
29011SOL    HW289041   2.960   8.618   1.681
29012SOL     OW89042   0.783   3.516   0.157
29012SOL    HW189043   0.831   3.586   0.113
29012SOL    HW289044   0.746   3.557   0.235
29013SOL     OW89045  10.408   1.903   3.298
29013SOL    HW189046  10.323   1.908   3.253
29013SOL    HW289047  10.463   1.852   3.238
29014SOL     OW89048   5.653   9.968   9.328
29014SOL    HW189049   5.565  10.002   9.312
29014SOL    HW289050   5.711  10.042   9.314
29015SOL     OW89051   4.562   2.774   7.868
29015SOL    HW189052   4.654   2.751   7.880
29015SOL    HW289053   4.515   2.692   7.885
29016SOL     OW89054   7.622   5.360   1.815
29016SOL    HW189055   7.554   5.314   1.765
29016SOL    HW289056   7.693   5.373   1.752
29017SOL     OW89057   7.512   8.434   6.634
29017SOL    HW189058   7.470   8.476   6.559
29017SOL    HW289059   7.581   8.380   6.595
29018SOL     OW89060   7.158   9.811   3.020
29018SOL    HW189061   7.230   9.874   3.016
29018SOL    HW289062   7.156   9.772   2.932
29019SOL     OW89063   7.771  11.012   8.241
29019SOL    HW189064   7.728  11.092   8.270
29019SOL    HW289065   7.745  11.002   8.149
29020SOL     OW89066  10.093   0.982   3.509
29020SOL    HW189067  10.007   0.941   3.517
29020SOL    HW289068  10.087   1.036   3.430
29021SOL     OW89069  11.011   6.438   8.856
29021SOL    HW189070  11.064   6.406   8.782
29021SOL    HW289071  11.074   6.482   8.912
29022SOL     OW89072   2.026   7.864   1.082
29022SOL    HW189073   2.048   7.957   1.083
29022SOL    HW289074   2.010   7.841   1.173
29023SOL     OW89075   1.283   3.995  10.627
29023SOL    HW189076   1.347   4.066  10.636
29023SOL    HW289077   1.305   3.954  10.543
29024SOL     OW89078   6.809   4.057   7.694
29024SOL    HW189079   6.819   4.060   7.599
29024SOL    HW289080   6.717   4.080   7.709
29025SOL     OW89081   0.519   0.173   6.229
29025SOL    HW189082   0.446   0.149   6.171
29025SOL    HW289083   0.559   0.249   6.186
29026SOL     OW89084   6.793   3.529   2.780
29026SOL    HW189085   6.775   3.455   2.838
29026SOL    HW289086   6.863   3.578   2.823
29027SOL     OW89087   3.789   0.239   7.069
29027SOL    HW189088   3.828   0.151   7.063
29027SOL    HW289089   3.862   0.295   7.094
29028SOL     OW89090   8.866   9.613   2.625
29028SOL    HW189091   8.887   9.520   2.636
29028SOL    HW289092   8.907   9.637   2.542
29029SOL     OW89093   5.079   0.667   6.993
29029SOL    HW189094   5.115   0.581   7.018
29029SOL    HW289095   5.144   0.730   7.024
29030SOL     OW89096   4.547  11.076   0.173
29030SOL    HW189097   4.613  11.126   0.125
29030SOL    HW289098   4.464  11.112   0.143
29031SOL     OW89099   7.596   2.872   0.573
29031SOL    HW189100   7.651   2.847   0.499
29031SOL    HW289101   7.655   2.873   0.648
29032SOL     OW89102   9.313   8.309   9.756
29032SOL    HW189103   9.248   8.303   9.826
29032SOL    HW289104   9.280   8.250   9.688
29033SOL     OW89105   8.502   1.684   2.190
29033SOL    HW189106   8.581   1.695   2.243
29033SOL    HW289107   8.459   1.769   2.192
29034SOL     OW89108   2.455   7.425  10.942
29034SOL    HW189109   2.460   7.520  10.940
29034SOL    HW289110   2.409   7.401  10.861
29035SOL     OW89111  10.517   8.796   8.138
29035SOL    HW189112  10.489   8.885   8.119
29035SOL    HW289113  10.464   8.742   8.079
29036SOL     OW89114  10.410   8.780   6.792
29036SOL    HW189115  10.498   8.752   6.817
29036SOL    HW289116  10.355   8.703   6.807
29037SOL     OW89117   4.373   1.999  10.657
29037SOL    HW189118   4.368   1.998  10.752
29037SOL    HW289119   4.298   2.051  10.629
29038SOL     OW89120   5.506   5.125   8.849
29038SOL    HW189121   5.487   5.164   8.934
29038SOL    HW289122   5.596   5.094   8.856
29039SOL     OW89123   7.563  10.325  10.595
29039SOL    HW189124   7.540  10.308  10.503
29039SOL    HW289125   7.507  10.397  10.621
29040SOL     OW89126   9.788   6.089   3.015
29040SOL    HW189127   9.818   6.136   3.093
29040SOL    HW289128   9.868   6.072   2.965
29041SOL     OW89129   4.784   9.596   4.133
29041SOL    HW189130   4.848   9.604   4.062
29041SOL    HW289131   4.836   9.597   4.213
29042SOL     OW89132   9.774   8.247   6.955
29042SOL    HW189133   9.835   8.263   7.027
29042SOL    HW289134   9.695   8.213   6.997
29043SOL     OW89135   2.964   9.462   6.331
29043SOL    HW189136   2.908   9.532   6.365
29043SOL    HW289137   2.906   9.386   6.324
29044SOL     OW89138   0.914   7.794   2.848
29044SOL    HW189139   1.005   7.824   2.842
29044SOL    HW289140   0.909   7.750   2.933
29045SOL     OW89141   7.518   5.579   0.306
29045SOL    HW189142   7.558   5.606   0.223
29045SOL    HW289143   7.541   5.486   0.315
29046SOL     OW89144   5.213  10.900   1.199
29046SOL    HW189145   5.210  10.828   1.261
29046SOL    HW289146   5.186  10.861   1.116
29047SOL     OW89147   9.381   0.716   2.162
29047SOL    HW189148   9.306   0.761   2.200
29047SOL    HW289149   9.348   0.679   2.080
29048SOL     OW89150   2.735   0.651   0.321
29048SOL    HW189151   2.743   0.697   0.237
29048SOL    HW289152   2.753   0.717   0.387
29049SOL     OW89153   6.705   9.086   2.157
29049SOL    HW189154   6.715   9.179   2.177
29049SOL    HW289155   6.782   9.044   2.196
29050SOL     OW89156   7.329   3.630   8.861
29050SOL    HW189157   7.414   3.674   8.865
29050SOL    HW289158   7.317   3.609   8.768
29051SOL     OW89159  10.112   7.417  10.994
29051SOL    HW189160  10.140   7.401  11.084
29051SOL    HW289161  10.077   7.332  10.965
29052SOL     OW89162   8.972   8.153   6.799
29052SOL    HW189163   9.054   8.201   6.793
29052SOL    HW289164   8.908   8.218   6.825
29053SOL     OW89165   5.120   9.264   4.302
29053SOL    HW189166   5.171   9.185   4.321
29053SOL    HW289167   5.110   9.307   4.387
29054SOL     OW89168   8.718   1.431  10.764
29054SOL    HW189169   8.712   1.526  10.756
29054SOL    HW289170   8.684   1.398  10.681
29055SOL     OW89171  10.553   9.735   5.079
29055SOL    HW189172  10.577   9.643   5.065
29055SOL    HW289173  10.485   9.752   5.014
29056SOL     OW89174   0.930   5.284   2.714
29056SOL    HW189175   0.972   5.356   2.667
29056SOL    HW289176   1.002   5.223   2.734
29057SOL     OW89177   5.492   2.707   3.836
29057SOL    HW189178   5.506   2.624   3.882
29057SOL    HW289179   5.575   2.723   3.791
29058SOL     OW89180   3.025   2.261   6.407
29058SOL    HW189181   3.096   2.234   6.348
29058SOL    HW289182   3.050   2.225   6.492
29059SOL     OW89183  10.883   6.679   4.290
29059SOL    HW189184  10.849   6.684   4.379
29059SOL    HW289185  10.978   6.681   4.300
29060SOL     OW89186   9.013   9.419   2.075
29060SOL    HW189187   8.930   9.409   2.122
29060SOL    HW289188   9.019   9.512   2.055
29061SOL     OW89189  11.094   0.010   4.280
29061SOL    HW189190  11.133  -0.023   4.199
29061SOL    HW289191  11.056   0.094   4.256
29062SOL     OW89192   2.176   4.915   5.702
29062SOL    HW189193   2.087   4.933   5.673
29062SOL    HW289194   2.213   5.001   5.721
29063SOL     OW89195   6.576   2.856   9.036
29063SOL    HW189196   6.581   2.761   9.052
29063SOL    HW289197   6.663   2.889   9.060
29064SOL     OW89198   8.242   0.540   1.829
29064SOL    HW189199   8.292   0.616   1.798
29064SOL    HW289200   8.308   0.484   1.871
29065SOL     OW89201   2.399   9.159   4.212
29065SOL    HW189202   2.333   9.177   4.279
29065SOL    HW289203   2.349   9.151   4.131
29066SOL     OW89204   7.915   1.553   9.742
29066SOL    HW189205   7.856   1.510   9.680
29066SOL    HW289206   7.999   1.558   9.695
29067SOL     OW89207   1.437   0.205   0.950
29067SOL    HW189208   1.402   0.291   0.928
29067SOL    HW289209   1.413   0.192   1.041
29068SOL     OW89210   6.555   0.817   5.338
29068SOL    HW189211   6.632   0.767   5.365
29068SOL    HW289212   6.534   0.784   5.250
29069SOL     OW89213   9.902   4.341   0.787
29069SOL    HW189214   9.845   4.409   0.752
29069SOL    HW289215   9.954   4.385   0.854
29070SOL     OW89216   8.389   7.645   1.994
29070SOL    HW189217   8.333   7.587   2.046
29070SOL    HW289218   8.353   7.732   2.009
29071SOL     OW89219   0.826   2.111   7.144
29071SOL    HW189220   0.831   2.057   7.065
29071SOL    HW289221   0.875   2.062   7.210
29072SOL     OW89222  10.178   8.617   0.675
29072SOL    HW189223  10.228   8.686   0.631
29072SOL    HW289224  10.241   8.546   0.689
29073SOL     OW89225   7.196   9.008   0.510
29073SOL    HW189226   7.215   8.914   0.499
29073SOL    HW289227   7.101   9.013   0.511
29074SOL     OW89228   8.555  10.045   7.377
29074SOL    HW189229   8.584  10.125   7.420
29074SOL    HW289230   8.609   9.976   7.416
29075SOL     OW89231   3.040  10.196   6.851
29075SOL    HW189232   3.049  10.216   6.757
29075SOL    HW289233   3.031  10.281   6.893
29076SOL     OW89234   8.850   1.131   8.835
29076SOL    HW189235   8.794   1.103   8.763
29076SOL    HW289236   8.811   1.212   8.866
29077SOL     OW89237   5.283   2.641   0.182
29077SOL    HW189238   5.286   2.622   0.089
29077SOL    HW289239   5.338   2.573   0.222
29078SOL     OW89240   9.531   4.193   3.113
29078SOL    HW189241   9.582   4.250   3.056
29078SOL    HW289242   9.555   4.220   3.201
29079SOL     OW89243   1.038   8.125   4.621
29079SOL    HW189244   1.045   8.186   4.547
29079SOL    HW289245   1.127   8.118   4.655
29080SOL     OW89246   1.324   7.340  10.340
29080SOL    HW189247   1.270   7.261  10.343
29080SOL    HW289248   1.277   7.403  10.395
29081SOL     OW89249   8.175  10.214   9.361
29081SOL    HW189250   8.163  10.237   9.269
29081SOL    HW289251   8.087  10.197   9.393
29082SOL     OW89252   7.838   0.971   0.126
29082SOL    HW189253   7.895   1.047   0.114
29082SOL    HW289254   7.803   0.981   0.215
29083SOL     OW89255   4.746   6.166   1.107
29083SOL    HW189256   4.830   6.140   1.068
29083SOL    HW289257   4.686   6.095   1.083
29084SOL     OW89258   4.868   0.966   6.146
29084SOL    HW189259   4.903   0.978   6.234
29084SOL    HW289260   4.944   0.974   6.088
29085SOL     OW89261   7.349   4.855   4.518
29085SOL    HW189262   7.392   4.908   4.584
29085SOL    HW289263   7.360   4.904   4.436
29086SOL     OW89264   5.112  11.098  11.076
29086SOL    HW189265   5.149  11.183  11.099
29086SOL    HW289266   5.175  11.060  11.015
29087SOL     OW89267   9.446   2.482   9.503
29087SOL    HW189268   9.391   2.559   9.492
29087SOL    HW289269   9.499   2.500   9.580
29088SOL     OW89270   6.321   2.353   0.674
29088SOL    HW189271   6.348   2.444   0.665
29088SOL    HW289272   6.363   2.323   0.754
29089SOL     OW89273   4.286   6.354   4.703
29089SOL    HW189274   4.201   6.346   4.745
29089SOL    HW289275   4.349   6.335   4.772
29090SOL     OW89276   9.259  10.609   4.617
29090SOL    HW189277   9.243  10.570   4.702
29090SOL    HW289278   9.184  10.584   4.564
29091SOL     OW89279   9.788   9.169   2.064
29091SOL    HW189280   9.753   9.131   2.144
29091SOL    HW289281   9.803   9.261   2.085
29092SOL     OW89282   0.004   5.957   7.934
29092SOL    HW189283   0.082   6.001   7.900
29092SOL    HW289284  -0.034   6.019   7.996
29093SOL     OW89285   1.638   2.378  10.821
29093SOL    HW189286   1.582   2.440  10.775
29093SOL    HW289287   1.596   2.366  10.906
29094SOL     OW89288   7.093   1.622   4.867
29094SOL    HW189289   7.096   1.597   4.774
29094SOL    HW289290   7.080   1.716   4.866
29095SOL     OW89291   9.821   1.571   3.297
29095SOL    HW189292   9.782   1.586   3.211
29095SOL    HW289293   9.865   1.653   3.318
29096SOL     OW89294   0.063  11.040   1.414
29096SOL    HW189295   0.157  11.023   1.409
29096SOL    HW289296   0.032  11.031   1.323
29097SOL     OW89297  10.488   3.431   5.343
29097SOL    HW189298  10.485   3.423   5.438
29097SOL    HW289299  10.563   3.378   5.317
29098SOL     OW89300   4.886   2.620   3.521
29098SOL    HW189301   4.792   2.630   3.510
29098SOL    HW289302   4.898   2.526   3.537
29099SOL     OW89303  10.572   1.891   2.374
29099SOL    HW189304  10.578   1.841   2.292
29099SOL    HW289305  10.496   1.854   2.419
29100SOL     OW89306  10.283   7.618   2.357
29100SOL    HW189307  10.285   7.637   2.450
29100SOL    HW289308  10.222   7.544   2.349
29101SOL     OW89309   9.593   9.850   1.883
29101SOL    HW189310   9.499   9.860   1.866
29101SOL    HW289311   9.629   9.817   1.800
29102SOL     OW89312   8.610  10.216   5.974
29102SOL    HW189313   8.632  10.139   6.027
29102SOL    HW289314   8.618  10.290   6.034
29103SOL     OW89315   1.567   6.303   9.333
29103SOL    HW189316   1.590   6.232   9.272
29103SOL    HW289317   1.481   6.278   9.367
29104SOL     OW89318   0.550   0.750   2.819
29104SOL    HW189319   0.461   0.715   2.817
29104SOL    HW289320   0.601   0.681   2.862
29105SOL     OW89321   7.609   0.203   0.182
29105SOL    HW189322   7.556   0.163   0.113
29105SOL    HW289323   7.558   0.279   0.211
29106SOL     OW89324   8.884   0.521   1.004
29106SOL    HW189325   8.889   0.514   0.908
29106SOL    HW289326   8.975   0.510   1.033
29107SOL     OW89327   4.860   0.016   9.725
29107SOL    HW189328   4.795   0.001   9.793
29107SOL    HW289329   4.905   0.096   9.752
29108SOL     OW89330   6.568   6.419   1.741
29108SOL    HW189331   6.608   6.450   1.659
29108SOL    HW289332   6.520   6.494   1.774
29109SOL     OW89333   7.872   7.391   8.404
29109SOL    HW189334   7.894   7.357   8.317
29109SOL    HW289335   7.786   7.431   8.393
29110SOL     OW89336   6.608   0.135   8.468
29110SOL    HW189337   6.605   0.048   8.427
29110SOL    HW289338   6.632   0.118   8.559
29111SOL     OW89339  10.349   8.005   2.463
29111SOL    HW189340  10.303   7.959   2.393
29111SOL    HW289341  10.438   7.968   2.462
29112SOL     OW89342  10.730   2.716  11.027
29112SOL    HW189343  10.685   2.635  11.052
29112SOL    HW289344  10.730   2.769  11.106
29113SOL     OW89345  11.083  11.020   0.542
29113SOL    HW189346  11.099  11.066   0.459
29113SOL    HW289347  11.104  10.929   0.522
29114SOL     OW89348   0.972   9.893   3.018
29114SOL    HW189349   0.989   9.945   3.096
29114SOL    HW289350   1.007   9.806   3.039
29115SOL     OW89351   2.971   8.189   9.912
29115SOL    HW189352   3.007   8.155   9.829
29115SOL    HW289353   3.028   8.151   9.979
29116SOL     OW89354   8.538   1.000   0.343
29116SOL    HW189355   8.453   1.001   0.298
29116SOL    HW289356   8.519   0.966   0.430
29117SOL     OW89357   6.294   1.174   3.305
29117SOL    HW189358   6.348   1.106   3.264
29117SOL    HW289359   6.348   1.253   3.300
29118SOL     OW89360   2.273  10.795   8.314
29118SOL    HW189361   2.204  10.760   8.257
29118SOL    HW289362   2.265  10.744   8.394
29119SOL     OW89363   2.663   7.033   1.389
29119SOL    HW189364   2.591   6.973   1.369
29119SOL    HW289365   2.688   7.011   1.478
29120SOL     OW89366   5.532   8.729   6.555
29120SOL    HW189367   5.511   8.780   6.477
29120SOL    HW289368   5.450   8.724   6.603
29121SOL     OW89369   0.438   3.092   2.349
29121SOL    HW189370   0.436   3.076   2.254
29121SOL    HW289371   0.427   3.186   2.357
29122SOL     OW89372  10.333   0.598   7.051
29122SOL    HW189373  10.356   0.505   7.045
29122SOL    HW289374  10.241   0.601   7.027
29123SOL     OW89375   4.052   4.038   2.132
29123SOL    HW189376   4.085   4.031   2.042
29123SOL    HW289377   3.985   3.970   2.138
29124SOL     OW89378   7.827   5.704   8.562
29124SOL    HW189379   7.824   5.799   8.569
29124SOL    HW289380   7.870   5.675   8.642
29125SOL     OW89381   9.071   8.996   5.015
29125SOL    HW189382   9.150   9.045   5.037
29125SOL    HW289383   9.057   9.014   4.922
29126SOL     OW89384  10.993   2.089   9.364
29126SOL    HW189385  10.918   2.132   9.404
29126SOL    HW289386  11.068   2.120   9.414
29127SOL     OW89387   8.762   1.128   1.398
29127SOL    HW189388   8.781   1.150   1.307
29127SOL    HW289389   8.712   1.202   1.431
29128SOL     OW89390   9.426   8.861   4.947
29128SOL    HW189391   9.376   8.838   5.025
29128SOL    HW289392   9.364   8.851   4.874
29129SOL     OW89393   5.171   8.745   4.981
29129SOL    HW189394   5.098   8.781   5.031
29129SOL    HW289395   5.133   8.722   4.896
29130SOL     OW89396   5.566   1.267   0.899
29130SOL    HW189397   5.612   1.183   0.901
29130SOL    HW289398   5.480   1.248   0.936
29131SOL     OW89399   0.002   8.686   4.333
29131SOL    HW189400  -0.080   8.645   4.305
29131SOL    HW289401   0.069   8.643   4.280
29132SOL     OW89402  10.984   5.156   6.889
29132SOL    HW189403  11.056   5.197   6.841
29132SOL    HW289404  10.991   5.191   6.977
29133SOL     OW89405   5.820   2.597   0.728
29133SOL    HW189406   5.771   2.610   0.647
29133SOL    HW289407   5.900   2.551   0.700
29134SOL     OW89408   3.336   4.345   4.429
29134SOL    HW189409   3.422   4.305   4.446
29134SOL    HW289410   3.351   4.439   4.440
29135SOL     OW89411   0.847   0.081   5.766
29135SOL    HW189412   0.762   0.038   5.765
29135SOL    HW289413   0.827   0.173   5.753
29136SOL     OW89414   9.376   0.576   9.347
29136SOL    HW189415   9.292   0.557   9.306
29136SOL    HW289416   9.420   0.491   9.351
29137SOL     OW89417   3.300   8.313  10.124
29137SOL    HW189418   3.225   8.254  10.117
29137SOL    HW289419   3.369   8.259  10.163
29138SOL     OW89420   5.688   7.693   4.324
29138SOL    HW189421   5.654   7.613   4.283
29138SOL    HW289422   5.670   7.762   4.260
29139SOL     OW89423   0.862  10.259   0.659
29139SOL    HW189424   0.954  10.273   0.680
29139SOL    HW289425   0.862  10.236   0.566
29140SOL     OW89426   8.500  10.365  10.539
29140SOL    HW189427   8.473  10.295  10.598
29140SOL    HW289428   8.538  10.431  10.596
29141SOL     OW89429   2.851  10.906   0.075
29141SOL    HW189430   2.919  10.862   0.025
29141SOL    HW289431   2.898  10.951   0.145
29142SOL     OW89432   6.820   1.496   3.247
29142SOL    HW189433   6.851   1.407   3.264
29142SOL    HW289434   6.787   1.493   3.157
29143SOL     OW89435   0.039   3.231   9.557
29143SOL    HW189436   0.080   3.217   9.471
29143SOL    HW289437  -0.031   3.294   9.540
29144SOL     OW89438   1.304   3.741   5.079
29144SOL    HW189439   1.232   3.796   5.050
29144SOL    HW289440   1.317   3.764   5.171
29145SOL     OW89441   9.594  10.130   7.411
29145SOL    HW189442   9.562  10.056   7.359
29145SOL    HW289443   9.528  10.198   7.399
29146SOL     OW89444  11.095   4.700  10.891
29146SOL    HW189445  11.087   4.634  10.821
29146SOL    HW289446  11.142   4.654  10.961
29147SOL     OW89447   6.998   9.787   1.933
29147SOL    HW189448   7.072   9.772   1.873
29147SOL    HW289449   7.039   9.800   2.018
29148SOL     OW89450   2.959   5.774   9.879
29148SOL    HW189451   3.053   5.773   9.862
29148SOL    HW289452   2.928   5.690   9.845
29149SOL     OW89453   8.725   4.070   3.346
29149SOL    HW189454   8.637   4.099   3.367
29149SOL    HW289455   8.768   4.059   3.431
29150SOL     OW89456  10.582   9.286   1.014
29150SOL    HW189457  10.620   9.245   1.092
29150SOL    HW289458  10.658   9.312   0.961
29151SOL     OW89459   9.262   4.211   2.684
29151SOL    HW189460   9.283   4.188   2.774
29151SOL    HW289461   9.175   4.175   2.669
29152SOL     OW89462   3.441  11.075   2.494
29152SOL    HW189463   3.426  10.986   2.527
29152SOL    HW289464   3.489  11.063   2.412
29153SOL     OW89465   8.724   1.685   9.121
29153SOL    HW189466   8.668   1.643   9.055
29153SOL    HW289467   8.679   1.669   9.204
29154SOL     OW89468  10.128   7.645  10.380
29154SOL    HW189469  10.164   7.641  10.291
29154SOL    HW289470  10.037   7.670  10.367
29155SOL     OW89471   7.890  10.904   2.671
29155SOL    HW189472   7.803  10.920   2.707
29155SOL    HW289473   7.941  10.980   2.698
29156SOL     OW89474   0.369   5.271   1.583
29156SOL    HW189475   0.275   5.254   1.595
29156SOL    HW289476   0.402   5.288   1.671
29157SOL     OW89477   8.176   8.258   2.365
29157SOL    HW189478   8.150   8.248   2.273
29157SOL    HW289479   8.202   8.350   2.373
29158SOL     OW89480   1.417   3.849   7.369
29158SOL    HW189481   1.423   3.763   7.327
29158SOL    HW289482   1.436   3.911   7.299
29159SOL     OW89483  10.533   6.820  10.372
29159SOL    HW189484  10.592   6.844  10.301
29159SOL    HW289485  10.554   6.880  10.443
29160SOL     OW89486   4.540  10.565   4.163
29160SOL    HW189487   4.557  10.630   4.231
29160SOL    HW289488   4.539  10.481   4.209
29161SOL     OW89489   8.347   0.127   3.439
29161SOL    HW189490   8.267   0.111   3.489
29161SOL    HW289491   8.401   0.049   3.454
29162SOL     OW89492  10.806   9.665   6.904
29162SOL    HW189493  10.785   9.722   6.830
29162SOL    HW289494  10.815   9.724   6.978
29163SOL     OW89495  10.379   4.217   9.033
29163SOL    HW189496  10.350   4.286   9.093
29163SOL    HW289497  10.457   4.180   9.075
29164SOL     OW89498   6.102   8.080   5.800
29164SOL    HW189499   6.026   8.027   5.775
29164SOL    HW289500   6.144   8.029   5.869
29165SOL     OW89501   2.542   5.666   2.156
29165SOL    HW189502   2.586   5.735   2.107
29165SOL    HW289503   2.456   5.658   2.114
29166SOL     OW89504  10.610   4.510   3.296
29166SOL    HW189505  10.694   4.490   3.253
29166SOL    HW289506  10.580   4.425   3.329
29167SOL     OW89507   1.344   0.349   0.536
29167SOL    HW189508   1.367   0.390   0.619
29167SOL    HW289509   1.371   0.257   0.546
29168SOL     OW89510   5.278   2.884   1.099
29168SOL    HW189511   5.221   2.902   1.173
29168SOL    HW289512   5.329   2.964   1.088
29169SOL     OW89513   0.921  10.566   1.491
29169SOL    HW189514   0.992  10.619   1.528
29169SOL    HW289515   0.877  10.528   1.567
29170SOL     OW89516   7.269   4.842   3.828
29170SOL    HW189517   7.241   4.774   3.889
29170SOL    HW289518   7.363   4.850   3.842
29171SOL     OW89519   0.080   5.794   2.834
29171SOL    HW189520   0.051   5.791   2.925
29171SOL    HW289521   0.043   5.875   2.800
29172SOL     OW89522  10.827   4.943   1.975
29172SOL    HW189523  10.740   4.913   2.001
29172SOL    HW289524  10.835   5.030   2.014
29173SOL     OW89525   3.524   0.853   7.475
29173SOL    HW189526   3.568   0.937   7.484
29173SOL    HW289527   3.477   0.840   7.557
29174SOL     OW89528   0.107   4.590   8.463
29174SOL    HW189529   0.023   4.545   8.452
29174SOL    HW289530   0.168   4.520   8.486
29175SOL     OW89531   1.279   3.178   1.555
29175SOL    HW189532   1.352   3.177   1.617
29175SOL    HW289533   1.238   3.263   1.567
29176SOL     OW89534   6.496  10.201   8.705
29176SOL    HW189535   6.570  10.261   8.696
29176SOL    HW289536   6.504  10.142   8.630
29177SOL     OW89537   8.631   8.784   5.049
29177SOL    HW189538   8.724   8.775   5.068
29177SOL    HW289539   8.626   8.858   4.989
29178SOL     OW89540  10.515  10.443   7.266
29178SOL    HW189541  10.456  10.395   7.208
29178SOL    HW289542  10.478  10.531   7.270
29179SOL     OW89543   0.069  10.515   4.402
29179SOL    HW189544   0.028  10.591   4.444
29179SOL    HW289545   0.140  10.490   4.461
29180SOL     OW89546   9.077   2.040   4.088
29180SOL    HW189547   9.162   2.081   4.071
29180SOL    HW289548   9.090   1.990   4.168
29181SOL     OW89549   4.034   3.819  10.847
29181SOL    HW189550   3.990   3.839  10.929
29181SOL    HW289551   4.067   3.903  10.816
29182SOL     OW89552   1.566   5.314   0.001
29182SOL    HW189553   1.519   5.393   0.028
29182SOL    HW289554   1.657   5.341  -0.007
29183SOL     OW89555  10.227  10.989   7.675
29183SOL    HW189556  10.224  10.931   7.751
29183SOL    HW289557  10.296  10.953   7.619
29184SOL     OW89558   8.873   5.001   3.794
29184SOL    HW189559   8.953   5.038   3.756
29184SOL    HW289560   8.852   5.058   3.867
29185SOL     OW89561   5.244   5.367   8.570
29185SOL    HW189562   5.328   5.325   8.588
29185SOL    HW289563   5.248   5.390   8.477
29186SOL     OW89564  10.394   7.578   5.034
29186SOL    HW189565  10.418   7.624   4.953
29186SOL    HW289566  10.301   7.560   5.024
29187SOL     OW89567   6.271  10.050   9.790
29187SOL    HW189568   6.288  10.000   9.709
29187SOL    HW289569   6.356  10.088   9.813
29188SOL     OW89570   8.421   3.549   0.706
29188SOL    HW189571   8.394   3.543   0.614
29188SOL    HW289572   8.517   3.552   0.702
29189SOL     OW89573   5.710   7.024   4.203
29189SOL    HW189574   5.769   7.051   4.273
29189SOL    HW289575   5.626   7.064   4.226
29190SOL     OW89576   7.889   6.234  11.002
29190SOL    HW189577   7.877   6.144  11.033
29190SOL    HW289578   7.850   6.235  10.914
29191SOL     OW89579   4.697   1.425   4.437
29191SOL    HW189580   4.755   1.498   4.457
29191SOL    HW289581   4.707   1.412   4.342
29192SOL     OW89582   6.740   2.748   4.210
29192SOL    HW189583   6.676   2.757   4.281
29192SOL    HW289584   6.824   2.770   4.250
29193SOL     OW89585   0.406   7.490   0.694
29193SOL    HW189586   0.440   7.558   0.636
29193SOL    HW289587   0.480   7.468   0.751
29194SOL     OW89588   5.893   2.029   6.688
29194SOL    HW189589   5.912   2.000   6.598
29194SOL    HW289590   5.857   2.117   6.678
29195SOL     OW89591   5.382   3.444   4.198
29195SOL    HW189592   5.377   3.370   4.136
29195SOL    HW289593   5.333   3.414   4.275
29196SOL     OW89594   1.930   2.566   2.038
29196SOL    HW189595   1.945   2.486   2.089
29196SOL    HW289596   1.957   2.637   2.095
29197SOL     OW89597   8.164   2.666  10.096
29197SOL    HW189598   8.249   2.666  10.139
29197SOL    HW289599   8.177   2.609  10.019
29198SOL     OW89600   6.219   1.706   0.070
29198SOL    HW189601   6.213   1.695  -0.025
29198SOL    HW289602   6.269   1.630   0.100
29199SOL     OW89603  10.967   1.785   2.185
29199SOL    HW189604  11.019   1.753   2.111
29199SOL    HW289605  10.953   1.877   2.166
29200SOL     OW89606   4.062   2.034   5.865
29200SOL    HW189607   4.042   2.084   5.944
29200SOL    HW289608   4.118   2.092   5.813
29201SOL     OW89609   4.754   6.930  10.560
29201SOL    HW189610   4.723   7.019  10.574
29201SOL    HW289611   4.734   6.884  10.641
29202SOL     OW89612   4.538   1.661   4.109
29202SOL    HW189613   4.604   1.593   4.093
29202SOL    HW289614   4.493   1.670   4.025
29203SOL     OW89615  10.049   2.019   5.766
29203SOL    HW189616   9.968   1.973   5.786
29203SOL    HW289617  10.082   1.974   5.687
29204SOL     OW89618   7.033  10.011   1.139
29204SOL    HW189619   6.995   9.941   1.086
29204SOL    HW289620   6.969  10.026   1.208
29205SOL     OW89621   2.386  10.606   7.147
29205SOL    HW189622   2.474  10.618   7.112
29205SOL    HW289623   2.337  10.682   7.115
29206SOL     OW89624   5.167   8.745   4.374
29206SOL    HW189625   5.255   8.758   4.337
29206SOL    HW289626   5.152   8.651   4.366
29207SOL     OW89627   7.362   6.215   5.845
29207SOL    HW189628   7.332   6.124   5.840
29207SOL    HW289629   7.292   6.265   5.804
29208SOL     OW89630  10.405   3.387   0.510
29208SOL    HW189631  10.327   3.342   0.478
29208SOL    HW289632  10.441   3.429   0.432
29209SOL     OW89633   5.447   1.165   7.826
29209SOL    HW189634   5.454   1.121   7.741
29209SOL    HW289635   5.533   1.205   7.839
29210SOL     OW89636   8.553   6.187   3.185
29210SOL    HW189637   8.545   6.163   3.277
29210SOL    HW289638   8.605   6.267   3.185
29211SOL     OW89639   0.727   5.753   0.774
29211SOL    HW189640   0.691   5.841   0.776
29211SOL    HW289641   0.694   5.711   0.854
29212SOL     OW89642   5.787   9.202   7.789
29212SOL    HW189643   5.727   9.245   7.729
29212SOL    HW289644   5.746   9.211   7.875
29213SOL     OW89645   7.188   6.871   9.488
29213SOL    HW189646   7.102   6.903   9.514
29213SOL    HW289647   7.230   6.946   9.446
29214SOL     OW89648   5.242   6.956   5.106
29214SOL    HW189649   5.173   6.932   5.168
29214SOL    HW289650   5.263   7.046   5.128
29215SOL     OW89651   2.058  10.716   9.669
29215SOL    HW189652   2.048  10.733   9.575
29215SOL    HW289653   1.970  10.728   9.705
29216SOL     OW89654   9.197   1.005   3.917
29216SOL    HW189655   9.153   0.942   3.859
29216SOL    HW289656   9.267   1.042   3.863
29217SOL     OW89657   7.333  10.814   0.223
29217SOL    HW189658   7.309  10.865   0.300
29217SOL    HW289659   7.332  10.723   0.253
29218SOL     OW89660   2.579  10.919   9.478
29218SOL    HW189661   2.575  10.903   9.572
29218SOL    HW289662   2.649  10.861   9.447
29219SOL     OW89663   4.441   1.342   9.360
29219SOL    HW189664   4.362   1.294   9.384
29219SOL    HW289665   4.413   1.433   9.352
29220SOL     OW89666   9.065  10.784   8.928
29220SOL    HW189667   9.092  10.750   8.842
29220SOL    HW289668   8.976  10.752   8.939
29221SOL     OW89669   1.234   5.900   5.372
29221SOL    HW189670   1.168   5.857   5.317
29221SOL    HW289671   1.293   5.829   5.399
29222SOL     OW89672   7.738   9.242   5.501
29222SOL    HW189673   7.766   9.331   5.520
29222SOL    HW289674   7.645   9.241   5.522
29223SOL     OW89675   6.097   3.155   5.001
29223SOL    HW189676   6.107   3.237   5.048
29223SOL    HW289677   6.090   3.181   4.909
29224SOL     OW89678   7.241   0.758  10.069
29224SOL    HW189679   7.146   0.752  10.076
29224SOL    HW289680   7.263   0.838  10.116
29225SOL     OW89681   6.621   8.055   4.050
29225SOL    HW189682   6.690   8.093   4.104
29225SOL    HW289683   6.540   8.077   4.096
29226SOL     OW89684   9.219  11.004   4.862
29226SOL    HW189685   9.172  10.992   4.944
29226SOL    HW289686   9.236  11.098   4.857
29227SOL     OW89687  10.768   7.221   3.840
29227SOL    HW189688  10.685   7.248   3.880
29227SOL    HW289689  10.764   7.125   3.839
29228SOL     OW89690   7.928   1.841   9.214
29228SOL    HW189691   7.901   1.749   9.215
29228SOL    HW289692   7.909   1.870   9.125
29229SOL     OW89693   7.943   9.904   0.362
29229SOL    HW189694   8.009   9.907   0.292
29229SOL    HW289695   7.976   9.839   0.424
29230SOL     OW89696   3.305   8.199   2.666
29230SOL    HW189697   3.367   8.156   2.725
29230SOL    HW289698   3.360   8.250   2.606
29231SOL     OW89699   3.905   9.867   2.925
29231SOL    HW189700   3.859   9.947   2.901
29231SOL    HW289701   3.838   9.798   2.920
29232SOL     OW89702   1.550   9.669   7.341
29232SOL    HW189703   1.494   9.631   7.408
29232SOL    HW289704   1.549   9.763   7.359
29233SOL     OW89705   9.253   8.366   1.504
29233SOL    HW189706   9.333   8.382   1.554
29233SOL    HW289707   9.219   8.453   1.483
29234SOL     OW89708   4.714   5.035   3.051
29234SOL    HW189709   4.720   5.077   3.136
29234SOL    HW289710   4.631   5.065   3.015
29235SOL     OW89711  10.192   2.364   9.143
29235SOL    HW189712  10.185   2.290   9.203
29235SOL    HW289713  10.283   2.361   9.112
29236SOL     OW89714   9.647   0.636   5.209
29236SOL    HW189715   9.728   0.590   5.187
29236SOL    HW289716   9.676   0.724   5.233
29237SOL     OW89717   1.820  10.229   7.177
29237SOL    HW189718   1.786  10.299   7.232
29237SOL    HW289719   1.824  10.152   7.234
29238SOL     OW89720   5.869   6.656   1.400
29238SOL    HW189721   5.958   6.677   1.429
29238SOL    HW289722   5.832   6.740   1.373
29239SOL     OW89723   8.728   4.104   1.881
29239SOL    HW189724   8.698   4.121   1.970
29239SOL    HW289725   8.719   4.009   1.871
29240SOL     OW89726   9.730   7.316   1.715
29240SOL    HW189727   9.782   7.389   1.682
29240SOL    HW289728   9.642   7.352   1.724
29241SOL     OW89729   9.108   2.375   8.500
29241SOL    HW189730   9.181   2.405   8.555
29241SOL    HW289731   9.057   2.317   8.557
29242SOL     OW89732   0.846   2.304  10.127
29242SOL    HW189733   0.852   2.222  10.077
29242SOL    HW289734   0.915   2.296  10.193
29243SOL     OW89735   0.116   8.497   6.295
29243SOL    HW189736   0.062   8.576   6.297
29243SOL    HW289737   0.057   8.428   6.262
29244SOL     OW89738   7.027   6.168   2.397
29244SOL    HW189739   6.992   6.081   2.417
29244SOL    HW289740   6.961   6.229   2.429
29245SOL     OW89741   0.683   4.793   6.089
29245SOL    HW189742   0.718   4.857   6.027
29245SOL    HW289743   0.665   4.843   6.168
29246SOL     OW89744   9.451   3.488   9.365
29246SOL    HW189745   9.439   3.423   9.435
29246SOL    HW289746   9.499   3.440   9.297
29247SOL     OW89747   3.505   9.404   9.276
29247SOL    HW189748   3.540   9.490   9.297
29247SOL    HW289749   3.472   9.413   9.186
29248SOL     OW89750   6.965   6.426  10.211
29248SOL    HW189751   6.900   6.355  10.214
29248SOL    HW289752   6.937   6.481  10.138
29249SOL     OW89753   8.073   2.165   7.618
29249SOL    HW189754   8.040   2.226   7.552
29249SOL    HW289755   8.167   2.184   7.624
29250SOL     OW89756   0.191   9.450   2.739
29250SOL    HW189757   0.258   9.382   2.751
29250SOL    HW289758   0.144   9.452   2.822
29251SOL     OW89759   1.341   9.159  10.717
29251SOL    HW189760   1.362   9.086  10.658
29251SOL    HW289761   1.291   9.119  10.788
29252SOL     OW89762   7.945   5.160   8.577
29252SOL    HW189763   7.997   5.240   8.571
29252SOL    HW289764   7.991   5.106   8.641
29253SOL     OW89765   0.296   0.021   9.750
29253SOL    HW189766   0.236  -0.048   9.719
29253SOL    HW289767   0.383  -0.013   9.731
29254SOL     OW89768   3.895  10.001   6.855
29254SOL    HW189769   3.859  10.018   6.942
29254SOL    HW289770   3.952   9.925   6.867
29255SOL     OW89771   1.809   5.207   6.499
29255SOL    HW189772   1.748   5.205   6.572
29255SOL    HW289773   1.878   5.145   6.523
29256SOL     OW89774   7.041   4.606   4.757
29256SOL    HW189775   7.042   4.528   4.813
29256SOL    HW289776   6.954   4.606   4.717
29257SOL     OW89777   7.857   2.310   1.073
29257SOL    HW189778   7.857   2.362   1.153
29257SOL    HW289779   7.806   2.232   1.095
29258SOL     OW89780   2.446   1.943   0.804
29258SOL    HW189781   2.505   1.904   0.739
29258SOL    HW289782   2.480   2.031   0.817
29259SOL     OW89783  10.123   6.502   0.032
29259SOL    HW189784  10.044   6.498   0.086
29259SOL    HW289785  10.120   6.588  -0.009
29260SOL     OW89786   1.092   4.953   3.325
29260SOL    HW189787   1.088   5.048   3.314
29260SOL    HW289788   1.109   4.919   3.237
29261SOL     OW89789   4.578   4.869   2.281
29261SOL    HW189790   4.604   4.961   2.277
29261SOL    HW289791   4.580   4.840   2.189
29262SOL     OW89792   8.689   1.441   5.258
29262SOL    HW189793   8.646   1.473   5.178
29262SOL    HW289794   8.759   1.384   5.226
29263SOL     OW89795   1.190   7.739   5.966
29263SOL    HW189796   1.124   7.775   5.907
29263SOL    HW289797   1.204   7.650   5.934
29264SOL     OW89798   0.392   2.335   6.214
29264SOL    HW189799   0.436   2.290   6.286
29264SOL    HW289800   0.424   2.425   6.217
29265SOL     OW89801  10.933   7.437   1.639
29265SOL    HW189802  10.991   7.466   1.709
29265SOL    HW289803  10.916   7.516   1.588
29266SOL     OW89804   8.680   8.525   0.342
29266SOL    HW189805   8.743   8.572   0.287
29266SOL    HW289806   8.716   8.532   0.430
29267SOL     OW89807   7.496   9.628   5.010
29267SOL    HW189808   7.550   9.667   4.941
29267SOL    HW289809   7.442   9.700   5.042
29268SOL     OW89810   7.006  10.202   2.418
29268SOL    HW189811   7.056  10.211   2.499
29268SOL    HW289812   7.068  10.162   2.356
29269SOL     OW89813   9.037   2.683   2.047
29269SOL    HW189814   8.972   2.689   2.116
29269SOL    HW289815   8.986   2.685   1.966
29270SOL     OW89816  10.620   4.844   7.510
29270SOL    HW189817  10.658   4.787   7.577
29270SOL    HW289818  10.530   4.859   7.539
29271SOL     OW89819   9.717   4.823   1.957
29271SOL    HW189820   9.682   4.734   1.957
29271SOL    HW289821   9.790   4.820   1.895
29272SOL     OW89822   2.026   8.132   1.857
29272SOL    HW189823   1.952   8.072   1.845
29272SOL    HW289824   2.044   8.166   1.769
29273SOL     OW89825   2.167   5.596   6.083
29273SOL    HW189826   2.230   5.657   6.120
29273SOL    HW289827   2.101   5.584   6.151
29274SOL     OW89828   5.380   0.369   5.452
29274SOL    HW189829   5.338   0.285   5.431
29274SOL    HW289830   5.344   0.430   5.388
29275SOL     OW89831   8.090   5.654   5.059
29275SOL    HW189832   8.109   5.729   5.115
29275SOL    HW289833   8.044   5.691   4.983
29276SOL     OW89834   9.636   4.065   9.951
29276SOL    HW189835   9.643   3.969   9.944
29276SOL    HW289836   9.673   4.086  10.036
29277SOL     OW89837   0.081   5.227   5.068
29277SOL    HW189838   0.051   5.310   5.032
29277SOL    HW289839   0.157   5.250   5.121
29278SOL     OW89840   8.744   9.411   2.162
29278SOL    HW189841   8.688   9.343   2.199
29278SOL    HW289842   8.689   9.489   2.160
29279SOL     OW89843   8.476   2.690   7.084
29279SOL    HW189844   8.474   2.744   7.005
29279SOL    HW289845   8.430   2.742   7.150
29280SOL     OW89846   7.106   9.381   3.998
29280SOL    HW189847   7.106   9.449   4.065
29280SOL    HW289848   7.087   9.300   4.045
29281SOL     OW89849  10.701   9.784   0.539
29281SOL    HW189850  10.685   9.724   0.612
29281SOL    HW289851  10.741   9.729   0.471
29282SOL     OW89852   3.202   7.122   1.764
29282SOL    HW189853   3.186   7.029   1.784
29282SOL    HW289854   3.192   7.128   1.669
29283SOL     OW89855   6.669   1.686   4.884
29283SOL    HW189856   6.644   1.718   4.797
29283SOL    HW289857   6.616   1.607   4.897
29284SOL     OW89858   1.127   6.634   7.680
29284SOL    HW189859   1.046   6.585   7.665
29284SOL    HW289860   1.148   6.672   7.595
29285SOL     OW89861   9.539  10.470   3.892
29285SOL    HW189862   9.493  10.544   3.932
29285SOL    HW289863   9.561  10.412   3.965
29286SOL     OW89864   1.075   4.224   3.280
29286SOL    HW189865   1.064   4.167   3.356
29286SOL    HW289866   1.060   4.166   3.205
29287SOL     OW89867   5.666   7.212   7.647
29287SOL    HW189868   5.688   7.303   7.666
29287SOL    HW289869   5.587   7.217   7.593
29288SOL     OW89870   8.342   5.687   3.119
29288SOL    HW189871   8.379   5.687   3.207
29288SOL    HW289872   8.252   5.657   3.131
29289SOL     OW89873   6.678  10.473   8.805
29289SOL    HW189874   6.686  10.568   8.799
29289SOL    HW289875   6.723  10.440   8.727
29290SOL     OW89876   1.743  10.723   7.628
29290SOL    HW189877   1.771  10.648   7.575
29290SOL    HW289878   1.777  10.705   7.715
29291SOL     OW89879   9.484   5.879  10.985
29291SOL    HW189880   9.426   5.943  10.944
29291SOL    HW289881   9.570   5.899  10.949
29292SOL     OW89882   4.233   7.935   3.781
29292SOL    HW189883   4.260   7.912   3.870
29292SOL    HW289884   4.199   7.853   3.744
29293SOL     OW89885   4.896   8.184   3.611
29293SOL    HW189886   4.990   8.198   3.599
29293SOL    HW289887   4.868   8.138   3.532
29294SOL     OW89888   4.202   2.214  10.579
29294SOL    HW189889   4.126   2.198  10.635
29294SOL    HW289890   4.195   2.306  10.555
29295SOL     OW89891   6.467   3.869   2.534
29295SOL    HW189892   6.500   3.859   2.623
29295SOL    HW289893   6.492   3.787   2.490
29296SOL     OW89894   7.131   9.319   1.162
29296SOL    HW189895   7.125   9.388   1.096
29296SOL    HW289896   7.126   9.364   1.246
29297SOL     OW89897   7.391   9.822   5.167
29297SOL    HW189898   7.412   9.830   5.260
29297SOL    HW289899   7.321   9.885   5.152
29298SOL     OW89900   3.594   0.325   8.579
29298SOL    HW189901   3.559   0.401   8.626
29298SOL    HW289902   3.688   0.340   8.575
29299SOL     OW89903   6.786   4.350   1.053
29299SOL    HW189904   6.695   4.322   1.055
29299SOL    HW289905   6.792   4.418   1.120
29300SOL     OW89906   4.633   5.468   7.712
29300SOL    HW189907   4.626   5.532   7.641
29300SOL    HW289908   4.725   5.470   7.737
29301SOL     OW89909  10.579   6.288   2.008
29301SOL    HW189910  10.573   6.213   2.067
29301SOL    HW289911  10.494   6.292   1.965
29302SOL     OW89912   8.025   5.290   3.636
29302SOL    HW189913   7.975   5.211   3.615
29302SOL    HW289914   7.974   5.333   3.705
29303SOL     OW89915   8.795  10.245   6.350
29303SOL    HW189916   8.700  10.251   6.339
29303SOL    HW289917   8.808  10.231   6.443
29304SOL     OW89918   6.695   4.159   6.513
29304SOL    HW189919   6.724   4.104   6.586
29304SOL    HW289920   6.674   4.243   6.552
29305SOL     OW89921   8.837  10.782   8.047
29305SOL    HW189922   8.932  10.793   8.055
29305SOL    HW289923   8.811  10.733   8.124
29306SOL     OW89924   5.491   0.600   9.300
29306SOL    HW189925   5.487   0.534   9.230
29306SOL    HW289926   5.406   0.643   9.297
29307SOL     OW89927   6.517   9.295   8.188
29307SOL    HW189928   6.572   9.365   8.153
29307SOL    HW289929   6.450   9.281   8.121
29308SOL     OW89930  10.494   4.490   4.304
29308SOL    HW189931  10.527   4.452   4.386
29308SOL    HW289932  10.410   4.446   4.289
29309SOL     OW89933   4.780   8.299   3.229
29309SOL    HW189934   4.812   8.378   3.187
29309SOL    HW289935   4.708   8.328   3.285
29310SOL     OW89936   7.525   3.287   5.791
29310SOL    HW189937   7.594   3.343   5.755
29310SOL    HW289938   7.491   3.239   5.715
29311SOL     OW89939   6.846   2.698   5.094
29311SOL    HW189940   6.896   2.771   5.058
29311SOL    HW289941   6.872   2.694   5.186
29312SOL     OW89942   2.936   1.314   2.246
29312SOL    HW189943   2.903   1.231   2.210
29312SOL    HW289944   3.031   1.301   2.252
29313SOL     OW89945   8.170   0.722   6.803
29313SOL    HW189946   8.195   0.633   6.829
29313SOL    HW289947   8.206   0.731   6.715
29314SOL     OW89948   9.806   8.197   1.226
29314SOL    HW189949   9.763   8.276   1.259
29314SOL    HW289950   9.784   8.129   1.289
29315SOL     OW89951  10.871   4.188   2.689
29315SOL    HW189952  10.813   4.252   2.730
29315SOL    HW289953  10.901   4.231   2.609
29316SOL     OW89954   8.097   3.626   8.802
29316SOL    HW189955   8.136   3.583   8.725
29316SOL    HW289956   8.170   3.673   8.843
29317SOL     OW89957   4.597   1.610   7.815
29317SOL    HW189958   4.552   1.687   7.848
29317SOL    HW289959   4.684   1.641   7.791
29318SOL     OW89960   9.277   2.558   1.972
29318SOL    HW189961   9.198   2.587   2.017
29318SOL    HW289962   9.332   2.520   2.041
29319SOL     OW89963   3.641   0.285   1.360
29319SOL    HW189964   3.627   0.275   1.266
29319SOL    HW289965   3.562   0.329   1.391
29320SOL     OW89966   1.034   9.573   3.709
29320SOL    HW189967   1.080   9.612   3.782
29320SOL    HW289968   1.032   9.479   3.729
29321SOL     OW89969  10.086   5.345   2.824
29321SOL    HW189970  10.003   5.313   2.788
29321SOL    HW289971  10.145   5.269   2.821
29322SOL     OW89972   7.039   2.820   8.900
29322SOL    HW189973   6.949   2.788   8.891
29322SOL    HW289974   7.092   2.740   8.905
29323SOL     OW89975  11.098   2.738   8.948
29323SOL    HW189976  11.049   2.820   8.954
29323SOL    HW289977  11.184   2.758   8.985
29324SOL     OW89978  10.501   1.036   2.553
29324SOL    HW189979  10.461   1.094   2.488
29324SOL    HW289980  10.569   1.089   2.594
29325SOL     OW89981   6.629   8.670  10.983
29325SOL    HW189982   6.676   8.675  10.900
29325SOL    HW289983   6.603   8.578  10.989
29326SOL     OW89984   7.797   6.921   7.143
29326SOL    HW189985   7.723   6.938   7.201
29326SOL    HW289986   7.804   6.825   7.141
29327SOL     OW89987   0.957   5.992   2.999
29327SOL    HW189988   1.051   5.999   2.980
29327SOL    HW289989   0.951   5.926   3.068
29328SOL     OW89990   9.818   0.756   4.090
29328SOL    HW189991   9.751   0.706   4.136
29328SOL    HW289992   9.785   0.763   4.000
29329SOL     OW89993   1.482   8.911   1.889
29329SOL    HW189994   1.512   8.902   1.798
29329SOL    HW289995   1.400   8.862   1.891
29330SOL     OW89996   0.208   0.975   6.607
29330SOL    HW189997   0.134   1.007   6.556
29330SOL    HW289998   0.238   1.051   6.657
29331SOL     OW89999   0.678   6.832   2.511
29331SOL    HW190000   0.751   6.771   2.496
29331SOL    HW290001   0.622   6.820   2.434
29332SOL     OW90002  10.689   7.166   5.370
29332SOL    HW190003  10.610   7.205   5.407
29332SOL    HW290004  10.760   7.223   5.398
29333SOL     OW90005   8.419   8.525   5.693
29333SOL    HW190006   8.400   8.491   5.780
29333SOL    HW290007   8.350   8.589   5.677
29334SOL     OW90008   0.242   5.858   8.071
29334SOL    HW190009   0.309   5.913   8.031
29334SOL    HW290010   0.159   5.901   8.049
29335SOL     OW90011   2.327   5.203  10.459
29335SOL    HW190012   2.346   5.281  10.407
29335SOL    HW290013   2.412   5.159  10.467
29336SOL     OW90014   9.663   9.583   3.511
29336SOL    HW190015   9.718   9.640   3.564
29336SOL    HW290016   9.583   9.633   3.496
29337SOL     OW90017   5.591   8.814   7.935
29337SOL    HW190018   5.652   8.859   7.876
29337SOL    HW290019   5.609   8.850   8.021
29338SOL     OW90020   7.606   2.931   1.543
29338SOL    HW190021   7.695   2.897   1.548
29338SOL    HW290022   7.603   3.001   1.608
29339SOL     OW90023   7.007   2.093   4.461
29339SOL    HW190024   7.062   2.138   4.525
29339SOL    HW290025   6.921   2.134   4.470
29340SOL     OW90026   8.393   8.046   6.574
29340SOL    HW190027   8.417   8.137   6.559
29340SOL    HW290028   8.472   7.996   6.553
29341SOL     OW90029   0.098   5.952   2.192
29341SOL    HW190030   0.089   5.901   2.272
29341SOL    HW290031   0.183   5.926   2.157
29342SOL     OW90032   5.622   3.766  10.422
29342SOL    HW190033   5.642   3.725  10.337
29342SOL    HW290034   5.707   3.795  10.455
29343SOL     OW90035   4.089   0.662   5.245
29343SOL    HW190036   4.141   0.619   5.313
29343SOL    HW290037   4.001   0.627   5.256
29344SOL     OW90038   7.043   9.894   6.162
29344SOL    HW190039   6.976   9.961   6.173
29344SOL    HW290040   7.121   9.942   6.134
29345SOL     OW90041   6.394   9.941   7.762
29345SOL    HW190042   6.382   9.975   7.673
29345SOL    HW290043   6.451  10.005   7.805
29346SOL     OW90044  10.077   8.287   6.467
29346SOL    HW190045  10.142   8.276   6.536
29346SOL    HW290046  10.091   8.375   6.433
29347SOL     OW90047  10.991   3.962   8.483
29347SOL    HW190048  10.931   4.023   8.441
29347SOL    HW290049  10.935   3.905   8.535
29348SOL     OW90050   7.152   9.809   3.436
29348SOL    HW190051   7.096   9.886   3.440
29348SOL    HW290052   7.168   9.786   3.527
29349SOL     OW90053   4.954  10.139   0.267
29349SOL    HW190054   4.991  10.196   0.199
29349SOL    HW290055   4.958  10.191   0.347
29350SOL     OW90056   1.094   7.453   2.999
29350SOL    HW190057   1.137   7.480   3.080
29350SOL    HW290058   1.009   7.497   3.001
29351SOL     OW90059   1.091   9.687   7.740
29351SOL    HW190060   1.098   9.592   7.755
29351SOL    HW290061   1.078   9.724   7.827
29352SOL     OW90062   8.299   9.512  10.195
29352SOL    HW190063   8.346   9.507  10.111
29352SOL    HW290064   8.206   9.508  10.171
29353SOL     OW90065   7.727   0.304   3.842
29353SOL    HW190066   7.651   0.265   3.799
29353SOL    HW290067   7.725   0.396   3.816
29354SOL     OW90068   3.510   1.157   4.432
29354SOL    HW190069   3.597   1.118   4.443
29354SOL    HW290070   3.511   1.191   4.342
29355SOL     OW90071   4.621   3.522   3.651
29355SOL    HW190072   4.650   3.580   3.581
29355SOL    HW290073   4.624   3.576   3.730
29356SOL     OW90074   5.233  10.859  10.556
29356SOL    HW190075   5.200  10.772  10.536
29356SOL    HW290076   5.171  10.895  10.619
29357SOL     OW90077   3.962   1.645   1.092
29357SOL    HW190078   3.973   1.729   1.047
29357SOL    HW290079   3.930   1.585   1.024
29358SOL     OW90080  10.248   0.995   8.604
29358SOL    HW190081  10.153   0.998   8.592
29358SOL    HW290082  10.262   1.030   8.692
29359SOL     OW90083   7.302   7.212   4.947
29359SOL    HW190084   7.266   7.272   4.882
29359SOL    HW290085   7.396   7.230   4.947
29360SOL     OW90086   8.710   1.353   7.226
29360SOL    HW190087   8.714   1.440   7.187
29360SOL    HW290088   8.636   1.357   7.286
29361SOL     OW90089   5.844   6.450  10.933
29361SOL    HW190090   5.855   6.444  10.838
29361SOL    HW290091   5.798   6.369  10.957
29362SOL     OW90092   0.625   5.159  10.298
29362SOL    HW190093   0.611   5.253  10.306
29362SOL    HW290094   0.568   5.120  10.364
29363SOL     OW90095  10.348   5.020   1.572
29363SOL    HW190096  10.397   4.995   1.493
29363SOL    HW290097  10.260   4.984   1.558
29364SOL     OW90098  10.917   8.918  10.348
29364SOL    HW190099  10.889   8.829  10.370
29364SOL    HW290100  10.867   8.940  10.269
29365SOL     OW90101   0.356   0.591   6.252
29365SOL    HW190102   0.320   0.677   6.272
29365SOL    HW290103   0.443   0.609   6.217
29366SOL     OW90104   2.426   1.464   3.738
29366SOL    HW190105   2.419   1.540   3.796
29366SOL    HW290106   2.339   1.424   3.740
29367SOL     OW90107   1.664   7.919   2.663
29367SOL    HW190108   1.696   7.854   2.725
29367SOL    HW290109   1.604   7.870   2.606
29368SOL     OW90110  10.434   3.454   3.186
29368SOL    HW190111  10.493   3.413   3.249
29368SOL    HW290112  10.402   3.532   3.230
29369SOL     OW90113   5.817   3.100   0.287
29369SOL    HW190114   5.806   3.064   0.198
29369SOL    HW290115   5.907   3.077   0.310
29370SOL     OW90116   7.826  10.408   5.173
29370SOL    HW190117   7.818  10.315   5.151
29370SOL    HW290118   7.800  10.454   5.093
29371SOL     OW90119   9.746   2.179   0.297
29371SOL    HW190120   9.652   2.161   0.302
29371SOL    HW290121   9.761   2.248   0.360
29372SOL     OW90122   9.606  10.675   7.805
29372SOL    HW190123   9.683  10.730   7.817
29372SOL    HW290124   9.583  10.646   7.893
29373SOL     OW90125   7.044   9.282   3.743
29373SOL    HW190126   7.051   9.376   3.756
29373SOL    HW290127   7.135   9.251   3.738
29374SOL     OW90128   3.719   7.684   5.123
29374SOL    HW190129   3.637   7.702   5.168
29374SOL    HW290130   3.734   7.590   5.136
29375SOL     OW90131   7.297   1.266   3.698
29375SOL    HW190132   7.216   1.316   3.701
29375SOL    HW290133   7.365   1.331   3.682
29376SOL     OW90134   7.234   8.029   3.082
29376SOL    HW190135   7.293   8.060   3.013
29376SOL    HW290136   7.153   8.078   3.069
29377SOL     OW90137   5.357   9.663   1.812
29377SOL    HW190138   5.381   9.750   1.781
29377SOL    HW290139   5.287   9.635   1.753
29378SOL     OW90140   0.865   2.047  10.803
29378SOL    HW190141   0.833   2.136  10.813
29378SOL    HW290142   0.838   2.022  10.714
29379SOL     OW90143   7.119  10.139   1.602
29379SOL    HW190144   7.092  10.050   1.579
29379SOL    HW290145   7.064  10.195   1.548
29380SOL     OW90146   6.999   8.749   4.537
29380SOL    HW190147   7.003   8.655   4.557
29380SOL    HW290148   7.001   8.792   4.622
29381SOL     OW90149   9.753   7.596  11.078
29381SOL    HW190150   9.820   7.528  11.086
29381SOL    HW290151   9.685   7.556  11.023
29382SOL     OW90152   7.365   1.899   4.926
29382SOL    HW190153   7.404   1.844   4.994
29382SOL    HW290154   7.273   1.906   4.950
29383SOL     OW90155   0.833   6.836   1.893
29383SOL    HW190156   0.890   6.875   1.959
29383SOL    HW290157   0.745   6.866   1.916
29384SOL     OW90158   4.958   8.437   7.078
29384SOL    HW190159   4.939   8.354   7.033
29384SOL    HW290160   4.967   8.412   7.170
29385SOL     OW90161   8.123   3.617   1.582
29385SOL    HW190162   8.151   3.547   1.523
29385SOL    HW290163   8.034   3.593   1.606
29386SOL     OW90164   1.411   8.330   0.486
29386SOL    HW190165   1.447   8.290   0.565
29386SOL    HW290166   1.413   8.260   0.420
29387SOL     OW90167   6.820  10.536   2.742
29387SOL    HW190168   6.742  10.563   2.791
29387SOL    HW290169   6.786  10.507   2.657
29388SOL     OW90170   1.393   8.212  10.417
29388SOL    HW190171   1.448   8.225  10.494
29388SOL    HW290172   1.305   8.237  10.445
29389SOL     OW90173   2.817  10.836   8.616
29389SOL    HW190174   2.734  10.871   8.582
29389SOL    HW290175   2.878  10.844   8.542
29390SOL     OW90176   2.783  10.522   3.490
29390SOL    HW190177   2.714  10.487   3.433
29390SOL    HW290178   2.745  10.602   3.527
29391SOL     OW90179   4.181   0.439   2.096
29391SOL    HW190180   4.187   0.433   2.000
29391SOL    HW290181   4.239   0.369   2.128
29392SOL     OW90182   1.991  10.063   8.028
29392SOL    HW190183   2.007  10.155   8.049
29392SOL    HW290184   2.042  10.047   7.948
29393SOL     OW90185   9.460  10.708   2.478
29393SOL    HW190186   9.530  10.722   2.414
29393SOL    HW290187   9.384  10.686   2.425
29394SOL     OW90188   5.138   8.451   4.480
29394SOL    HW190189   5.154   8.363   4.514
29394SOL    HW290190   5.192   8.508   4.535
29395SOL     OW90191   2.909   5.911   0.574
29395SOL    HW190192   2.822   5.887   0.542
29395SOL    HW290193   2.965   5.908   0.496
29396SOL     OW90194   8.389   7.901   3.140
29396SOL    HW190195   8.299   7.883   3.112
29396SOL    HW290196   8.385   7.903   3.235
29397SOL     OW90197   6.589   2.041  10.917
29397SOL    HW190198   6.622   1.951  10.909
29397SOL    HW290199   6.548   2.044  11.003
29398SOL     OW90200   6.268   5.288   3.264
29398SOL    HW190201   6.297   5.222   3.327
29398SOL    HW290202   6.239   5.362   3.317
29399SOL     OW90203   7.317   4.653   9.894
29399SOL    HW190204   7.272   4.662   9.978
29399SOL    HW290205   7.398   4.607   9.915
29400SOL     OW90206   2.857  10.798   2.087
29400SOL    HW190207   2.849  10.798   2.182
29400SOL    HW290208   2.781  10.748   2.056
29401SOL     OW90209   9.437   4.903   1.672
29401SOL    HW190210   9.425   4.965   1.743
29401SOL    HW290211   9.356   4.851   1.670
29402SOL     OW90212   7.387  11.063   0.821
29402SOL    HW190213   7.434  11.133   0.774
29402SOL    HW290214   7.452  10.993   0.830
29403SOL     OW90215   2.111   8.758   3.157
29403SOL    HW190216   2.074   8.670   3.169
29403SOL    HW290217   2.132   8.762   3.063
29404SOL     OW90218   9.736   0.599   1.667
29404SOL    HW190219   9.702   0.573   1.581
29404SOL    HW290220   9.734   0.518   1.719
29405SOL     OW90221   4.984   8.748   7.074
29405SOL    HW190222   4.939   8.663   7.076
29405SOL    HW290223   4.918   8.809   7.042
29406SOL     OW90224  10.266   4.643   3.900
29406SOL    HW190225  10.175   4.614   3.908
29406SOL    HW290226  10.310   4.572   3.853
29407SOL     OW90227   6.887   0.075   4.883
29407SOL    HW190228   6.879   0.168   4.904
29407SOL    HW290229   6.949   0.041   4.948
29408SOL     OW90230   9.720   8.146  10.858
29408SOL    HW190231   9.642   8.094  10.879
29408SOL    HW290232   9.707   8.173  10.767
29409SOL     OW90233   9.553   5.657   3.626
29409SOL    HW190234   9.646   5.655   3.648
29409SOL    HW290235   9.520   5.572   3.655
29410SOL     OW90236   0.077   8.910  10.468
29410SOL    HW190237   0.030   8.856  10.532
29410SOL    HW290238   0.008   8.950  10.415
29411SOL     OW90239   6.084   4.020   0.119
29411SOL    HW190240   6.146   3.962   0.165
29411SOL    HW290241   6.010   3.963   0.097
29412SOL     OW90242   1.132   5.045  10.673
29412SOL    HW190243   1.135   5.134  10.637
29412SOL    HW290244   1.106   4.990  10.599
29413SOL     OW90245   8.439  10.118   4.729
29413SOL    HW190246   8.493  10.058   4.677
29413SOL    HW290247   8.421  10.191   4.670
29414SOL     OW90248   1.358   2.574   5.146
29414SOL    HW190249   1.265   2.556   5.132
29414SOL    HW290250   1.399   2.487   5.145
29415SOL     OW90251   8.095  10.399   7.612
29415SOL    HW190252   8.146  10.349   7.676
29415SOL    HW290253   8.085  10.486   7.650
29416SOL     OW90254   8.590   1.102   3.085
29416SOL    HW190255   8.560   1.032   3.143
29416SOL    HW290256   8.525   1.104   3.014
29417SOL     OW90257   2.840   6.471   2.522
29417SOL    HW190258   2.801   6.462   2.609
29417SOL    HW290259   2.834   6.564   2.501
29418SOL     OW90260   5.089   8.841   8.133
29418SOL    HW190261   5.155   8.777   8.107
29418SOL    HW290262   5.129   8.926   8.114
29419SOL     OW90263   6.265   7.200   1.018
29419SOL    HW190264   6.355   7.167   1.019
29419SOL    HW290265   6.273   7.291   1.044
29420SOL     OW90266   2.024   9.700   4.746
29420SOL    HW190267   1.976   9.773   4.708
29420SOL    HW290268   1.979   9.682   4.828
29421SOL     OW90269   9.069   3.928   0.504
29421SOL    HW190270   9.098   3.851   0.554
29421SOL    HW290271   9.001   3.894   0.446
29422SOL     OW90272   9.716   2.942   5.476
29422SOL    HW190273   9.681   2.907   5.394
29422SOL    HW290274   9.691   2.877   5.542
29423SOL     OW90275  10.508   3.612   1.976
29423SOL    HW190276  10.512   3.626   1.881
29423SOL    HW290277  10.425   3.567   1.990
29424SOL     OW90278   5.641   7.825   6.202
29424SOL    HW190279   5.674   7.869   6.123
29424SOL    HW290280   5.669   7.881   6.274
29425SOL     OW90281   9.676   3.686   7.138
29425SOL    HW190282   9.672   3.670   7.043
29425SOL    HW290283   9.690   3.599   7.176
29426SOL     OW90284   0.024   5.697   3.350
29426SOL    HW190285   0.096   5.634   3.350
29426SOL    HW290286   0.027   5.737   3.437
29427SOL     OW90287   2.376   8.516   5.300
29427SOL    HW190288   2.436   8.488   5.369
29427SOL    HW290289   2.362   8.609   5.315
29428SOL     OW90290   1.880   3.199   9.054
29428SOL    HW190291   1.928   3.120   9.027
29428SOL    HW290292   1.838   3.230   8.973
29429SOL     OW90293  10.275   1.038   4.506
29429SOL    HW190294  10.203   0.991   4.465
29429SOL    HW290295  10.239   1.124   4.528
29430SOL     OW90296   9.220  10.308   4.624
29430SOL    HW190297   9.257  10.270   4.704
29430SOL    HW290298   9.165  10.380   4.654
29431SOL     OW90299   2.718   0.141   4.297
29431SOL    HW190300   2.793   0.188   4.333
29431SOL    HW290301   2.717   0.165   4.204
29432SOL     OW90302   5.502   9.068   4.260
29432SOL    HW190303   5.571   9.005   4.280
29432SOL    HW290304   5.426   9.036   4.308
29433SOL     OW90305   7.002  10.565   5.935
29433SOL    HW190306   7.031  10.561   6.026
29433SOL    HW290307   6.995  10.473   5.908
29434SOL     OW90308   1.097   3.057   9.593
29434SOL    HW190309   1.055   3.022   9.671
29434SOL    HW290310   1.079   3.151   9.596
29435SOL     OW90311   4.474   9.974   4.999
29435SOL    HW190312   4.512  10.030   5.066
29435SOL    HW290313   4.477  10.027   4.919
29436SOL     OW90314   9.397   2.625   1.187
29436SOL    HW190315   9.382   2.717   1.169
29436SOL    HW290316   9.460   2.624   1.259
29437SOL     OW90317   2.332   4.218   7.120
29437SOL    HW190318   2.411   4.200   7.171
29437SOL    HW290319   2.355   4.294   7.067
29438SOL     OW90320   0.131   3.209   7.654
29438SOL    HW190321   0.135   3.114   7.669
29438SOL    HW290322   0.056   3.221   7.595
29439SOL     OW90323  10.156   3.548   9.883
29439SOL    HW190324  10.223   3.583   9.824
29439SOL    HW290325  10.141   3.617   9.947
29440SOL     OW90326   0.946   1.477   4.547
29440SOL    HW190327   1.006   1.543   4.514
29440SOL    HW290328   0.872   1.526   4.582
29441SOL     OW90329   9.385  10.334   7.348
29441SOL    HW190330   9.332  10.285   7.411
29441SOL    HW290331   9.368  10.426   7.369
29442SOL     OW90332   6.994   9.746   2.553
29442SOL    HW190333   6.994   9.668   2.497
29442SOL    HW290334   6.908   9.746   2.594
29443SOL     OW90335  10.027   8.906   3.476
29443SOL    HW190336  10.018   8.994   3.512
29443SOL    HW290337  10.101   8.868   3.523
29444SOL     OW90338   6.583   2.494   6.129
29444SOL    HW190339   6.657   2.554   6.132
29444SOL    HW290340   6.614   2.416   6.176
29445SOL     OW90341   2.898   1.597   2.053
29445SOL    HW190342   2.924   1.680   2.092
29445SOL    HW290343   2.924   1.530   2.117
29446SOL     OW90344   2.842   4.266   6.395
29446SOL    HW190345   2.826   4.189   6.450
29446SOL    HW290346   2.891   4.232   6.320
29447SOL     OW90347   7.623   0.989   4.976
29447SOL    HW190348   7.643   1.061   4.917
29447SOL    HW290349   7.679   1.004   5.052
29448SOL     OW90350   8.547   2.527   3.435
29448SOL    HW190351   8.589   2.551   3.352
29448SOL    HW290352   8.566   2.600   3.493
29449SOL     OW90353   2.270   7.594   0.933
29449SOL    HW190354   2.352   7.632   0.963
29449SOL    HW290355   2.274   7.503   0.962
29450SOL     OW90356   7.814   9.655   5.399
29450SOL    HW190357   7.820   9.678   5.306
29450SOL    HW290358   7.724   9.676   5.423
29451SOL     OW90359   0.912   2.021   5.498
29451SOL    HW190360   0.897   2.077   5.573
29451SOL    HW290361   0.825   2.007   5.461
29452SOL     OW90362   7.343  10.829   1.370
29452SOL    HW190363   7.285  10.903   1.352
29452SOL    HW290364   7.288  10.752   1.357
29453SOL     OW90365   7.553   0.197   1.072
29453SOL    HW190366   7.543   0.167   1.162
29453SOL    HW290367   7.464   0.197   1.036
29454SOL     OW90368   7.058  10.553   3.623
29454SOL    HW190369   7.028  10.464   3.606
29454SOL    HW290370   6.983  10.596   3.664
29455SOL     OW90371   1.279   1.318   4.330
29455SOL    HW190372   1.286   1.236   4.280
29455SOL    HW290373   1.249   1.290   4.416
29456SOL     OW90374   1.592   7.453   9.310
29456SOL    HW190375   1.661   7.409   9.259
29456SOL    HW290376   1.595   7.544   9.281
29457SOL     OW90377   8.322   1.942   4.101
29457SOL    HW190378   8.301   2.002   4.172
29457SOL    HW290379   8.354   1.998   4.030
29458SOL     OW90380   1.608  11.016   6.438
29458SOL    HW190381   1.613  10.988   6.529
29458SOL    HW290382   1.597  10.935   6.389
29459SOL     OW90383   1.859   2.626   9.809
29459SOL    HW190384   1.801   2.678   9.864
29459SOL    HW290385   1.841   2.535   9.834
29460SOL     OW90386   8.079   8.224   2.070
29460SOL    HW190387   8.161   8.210   2.022
29460SOL    HW290388   8.061   8.139   2.110
29461SOL     OW90389   7.982   8.952   1.393
29461SOL    HW190390   7.956   8.921   1.306
29461SOL    HW290391   8.066   8.909   1.409
29462SOL     OW90392   1.342   1.950  10.537
29462SOL    HW190393   1.277   2.020  10.537
29462SOL    HW290394   1.419   1.988  10.579
29463SOL     OW90395   2.870   9.829   9.918
29463SOL    HW190396   2.781   9.816   9.886
29463SOL    HW290397   2.902   9.740   9.937
29464SOL     OW90398   5.911  10.507   5.801
29464SOL    HW190399   5.925  10.414   5.784
29464SOL    HW290400   5.992  10.549   5.771
29465SOL     OW90401   9.357   3.264  11.030
29465SOL    HW190402   9.398   3.209  10.963
29465SOL    HW290403   9.429   3.316  11.066
29466SOL     OW90404   7.476   6.268   3.194
29466SOL    HW190405   7.526   6.260   3.275
29466SOL    HW290406   7.470   6.178   3.160
29467SOL     OW90407   9.219   5.055   1.035
29467SOL    HW190408   9.127   5.034   1.048
29467SOL    HW290409   9.227   5.069   0.940
29468SOL     OW90410   8.751   0.261   9.133
29468SOL    HW190411   8.787   0.175   9.110
29468SOL    HW290412   8.672   0.241   9.183
29469SOL     OW90413   9.673   3.760   5.066
29469SOL    HW190414   9.592   3.758   5.015
29469SOL    HW290415   9.659   3.695   5.135
29470SOL     OW90416   6.015   3.159   7.435
29470SOL    HW190417   5.983   3.115   7.356
29470SOL    HW290418   5.979   3.247   7.429
29471SOL     OW90419   8.206   7.739   4.689
29471SOL    HW190420   8.195   7.653   4.730
29471SOL    HW290421   8.237   7.795   4.759
29472SOL     OW90422   3.521   8.993   5.077
29472SOL    HW190423   3.601   8.994   5.130
29472SOL    HW290424   3.468   8.922   5.114
29473SOL     OW90425   5.562   2.659   3.069
29473SOL    HW190426   5.536   2.634   3.157
29473SOL    HW290427   5.503   2.609   3.012
29474SOL     OW90428   2.141   5.140   3.158
29474SOL    HW190429   2.060   5.145   3.208
29474SOL    HW290430   2.205   5.189   3.210
29475SOL     OW90431   6.283   0.814   1.066
29475SOL    HW190432   6.321   0.829   0.979
29475SOL    HW290433   6.190   0.834   1.055
29476SOL     OW90434   5.987   8.361  10.516
29476SOL    HW190435   6.077   8.380  10.489
29476SOL    HW290436   5.946   8.447  10.524
29477SOL     OW90437   0.408   0.978  10.986
29477SOL    HW190438   0.461   0.917  10.934
29477SOL    HW290439   0.471   1.042  11.020
29478SOL     OW90440   0.717   5.832   0.285
29478SOL    HW190441   0.672   5.916   0.275
29478SOL    HW290442   0.793   5.838   0.227
29479SOL     OW90443   8.051  11.090   8.294
29479SOL    HW190444   8.026  11.138   8.372
29479SOL    HW290445   7.974  11.037   8.272
29480SOL     OW90446   6.364   8.314   3.928
29480SOL    HW190447   6.306   8.386   3.951
29480SOL    HW290448   6.407   8.342   3.847
29481SOL     OW90449   4.281   9.411   4.987
29481SOL    HW190450   4.296   9.451   4.901
29481SOL    HW290451   4.311   9.320   4.977
29482SOL     OW90452   4.595   6.548   8.688
29482SOL    HW190453   4.545   6.489   8.632
29482SOL    HW290454   4.683   6.509   8.691
29483SOL     OW90455   2.682   9.470   4.700
29483SOL    HW190456   2.640   9.526   4.635
29483SOL    HW290457   2.773   9.464   4.670
29484SOL     OW90458   0.271   1.395   5.872
29484SOL    HW190459   0.239   1.373   5.959
29484SOL    HW290460   0.298   1.486   5.878
29485SOL     OW90461   4.212  10.357   6.881
29485SOL    HW190462   4.285  10.384   6.937
29485SOL    HW290463   4.247  10.284   6.829
29486SOL     OW90464   9.739   5.556   4.019
29486SOL    HW190465   9.760   5.489   4.085
29486SOL    HW290466   9.715   5.505   3.941
29487SOL     OW90467   1.767  10.846   1.848
29487SOL    HW190468   1.858  10.816   1.846
29487SOL    HW290469   1.715  10.766   1.840
29488SOL     OW90470  10.872   0.995   5.967
29488SOL    HW190471  10.832   1.074   6.002
29488SOL    HW290472  10.889   1.015   5.875
29489SOL     OW90473   9.017   2.008   8.033
29489SOL    HW190474   9.007   1.981   8.124
29489SOL    HW290475   8.966   1.944   7.983
29490SOL     OW90476   7.421   7.811   5.873
29490SOL    HW190477   7.416   7.906   5.862
29490SOL    HW290478   7.340   7.788   5.919
29491SOL     OW90479   2.002   1.233   6.544
29491SOL    HW190480   2.062   1.307   6.533
29491SOL    HW290481   2.006   1.186   6.460
29492SOL     OW90482   8.163   1.949  10.760
29492SOL    HW190483   8.223   1.922  10.830
29492SOL    HW290484   8.130   1.866  10.724
29493SOL     OW90485   8.221   6.207   1.579
29493SOL    HW190486   8.209   6.301   1.592
29493SOL    HW290487   8.181   6.167   1.656
29494SOL     OW90488   8.792   0.822   5.048
29494SOL    HW190489   8.762   0.779   4.968
29494SOL    HW290490   8.857   0.885   5.018
29495SOL     OW90491   4.889  10.851   7.783
29495SOL    HW190492   4.949  10.926   7.791
29495SOL    HW290493   4.821  10.881   7.723
29496SOL     OW90494   9.678   8.118   5.919
29496SOL    HW190495   9.596   8.068   5.910
29496SOL    HW290496   9.654   8.197   5.967
29497SOL     OW90497  10.689   9.660   4.147
29497SOL    HW190498  10.599   9.663   4.116
29497SOL    HW290499  10.717   9.569   4.132
29498SOL     OW90500   5.055   7.157   2.509
29498SOL    HW190501   4.994   7.204   2.453
29498SOL    HW290502   5.022   7.170   2.597
29499SOL     OW90503   7.190   4.161   8.193
29499SOL    HW190504   7.231   4.241   8.160
29499SOL    HW290505   7.117   4.145   8.133
29500SOL     OW90506   0.605   1.250   0.796
29500SOL    HW190507   0.616   1.309   0.870
29500SOL    HW290508   0.565   1.171   0.833
29501SOL     OW90509   6.218   1.366   7.618
29501SOL    HW190510   6.252   1.438   7.565
29501SOL    HW290511   6.256   1.287   7.578
29502SOL     OW90512   8.452   1.110   5.888
29502SOL    HW190513   8.432   1.110   5.794
29502SOL    HW290514   8.399   1.181   5.924
29503SOL     OW90515   3.475  10.551   5.713
29503SOL    HW190516   3.450  10.565   5.804
29503SOL    HW290517   3.438  10.627   5.666
29504SOL     OW90518   7.279   4.724   8.559
29504SOL    HW190519   7.368   4.690   8.564
29504SOL    HW290520   7.246   4.718   8.648
29505SOL     OW90521   9.107  10.077   4.556
29505SOL    HW190522   9.171  10.020   4.512
29505SOL    HW290523   9.149  10.163   4.559
29506SOL     OW90524   7.067   8.674  10.021
29506SOL    HW190525   7.106   8.672   9.933
29506SOL    HW290526   7.101   8.595  10.064
29507SOL     OW90527   0.660   0.404   4.240
29507SOL    HW190528   0.592   0.460   4.276
29507SOL    HW290529   0.742   0.441   4.273
29508SOL     OW90530   4.138   3.060   7.316
29508SOL    HW190531   4.217   3.010   7.293
29508SOL    HW290532   4.069   2.994   7.324
29509SOL     OW90533   7.643   4.547   2.994
29509SOL    HW190534   7.575   4.509   3.049
29509SOL    HW290535   7.609   4.540   2.905
29510SOL     OW90536   1.648   5.898   2.724
29510SOL    HW190537   1.630   5.949   2.645
29510SOL    HW290538   1.651   5.807   2.694
29511SOL     OW90539   6.768   7.770   0.379
29511SOL    HW190540   6.703   7.760   0.448
29511SOL    HW290541   6.849   7.734   0.416
29512SOL     OW90542   7.911  10.416   8.841
29512SOL    HW190543   7.940  10.326   8.827
29512SOL    HW290544   7.969  10.469   8.786
29513SOL     OW90545   8.680   8.841   1.481
29513SOL    HW190546   8.710   8.931   1.492
29513SOL    HW290547   8.716   8.814   1.396
29514SOL     OW90548   7.266   5.752   7.457
29514SOL    HW190549   7.275   5.758   7.362
29514SOL    HW290550   7.208   5.824   7.480
29515SOL     OW90551   9.316   2.630   3.479
29515SOL    HW190552   9.307   2.721   3.451
29515SOL    HW290553   9.246   2.617   3.543
29516SOL     OW90554   8.481   0.291   3.267
29516SOL    HW190555   8.434   0.347   3.328
29516SOL    HW290556   8.495   0.209   3.314
29517SOL     OW90557   4.591   6.247   2.834
29517SOL    HW190558   4.616   6.294   2.913
29517SOL    HW290559   4.674   6.216   2.797
29518SOL     OW90560   4.917   0.543   7.858
29518SOL    HW190561   4.929   0.502   7.944
29518SOL    HW290562   4.926   0.470   7.796
29519SOL     OW90563  10.918   9.826   6.419
29519SOL    HW190564  10.898   9.732   6.424
29519SOL    HW290565  10.833   9.869   6.423
29520SOL     OW90566   0.674   8.644   7.137
29520SOL    HW190567   0.613   8.572   7.122
29520SOL    HW290568   0.705   8.668   7.049
29521SOL     OW90569   6.198   7.745   3.228
29521SOL    HW190570   6.182   7.697   3.147
29521SOL    HW290571   6.191   7.837   3.203
29522SOL     OW90572   3.744   9.046   7.706
29522SOL    HW190573   3.718   8.965   7.662
29522SOL    HW290574   3.793   9.094   7.639
29523SOL     OW90575   0.333   5.459   6.760
29523SOL    HW190576   0.359   5.505   6.680
29523SOL    HW290577   0.392   5.384   6.765
29524SOL     OW90578  10.453   8.924   6.550
29524SOL    HW190579  10.412   8.848   6.507
29524SOL    HW290580  10.436   8.911   6.643
29525SOL     OW90581   0.039   2.601   9.429
29525SOL    HW190582   0.013   2.541   9.359
29525SOL    HW290583  -0.014   2.679   9.415
29526SOL     OW90584   7.351   1.604   6.945
29526SOL    HW190585   7.331   1.528   6.890
29526SOL    HW290586   7.416   1.653   6.895
29527SOL     OW90587   6.407   1.143   7.589
29527SOL    HW190588   6.418   1.104   7.675
29527SOL    HW290589   6.478   1.206   7.582
29528SOL     OW90590   6.953   4.872   0.924
29528SOL    HW190591   6.925   4.910   1.007
29528SOL    HW290592   6.906   4.922   0.857
29529SOL     OW90593   1.453   9.051   4.042
29529SOL    HW190594   1.461   9.012   3.954
29529SOL    HW290595   1.452   9.145   4.027
29530SOL     OW90596   7.062   0.706   0.426
29530SOL    HW190597   7.022   0.632   0.379
29530SOL    HW290598   7.038   0.783   0.374
29531SOL     OW90599   7.594   7.609   1.020
29531SOL    HW190600   7.570   7.588   1.110
29531SOL    HW290601   7.511   7.608   0.972
29532SOL     OW90602   5.409   8.563   5.479
29532SOL    HW190603   5.323   8.526   5.461
29532SOL    HW290604   5.419   8.557   5.574
29533SOL     OW90605   6.766   5.127   5.610
29533SOL    HW190606   6.771   5.216   5.577
29533SOL    HW290607   6.678   5.097   5.587
29534SOL     OW90608   0.258   1.860   2.946
29534SOL    HW190609   0.316   1.784   2.958
29534SOL    HW290610   0.169   1.824   2.955
29535SOL     OW90611  11.032   8.420   7.435
29535SOL    HW190612  10.958   8.420   7.496
29535SOL    HW290613  11.016   8.495   7.378
29536SOL     OW90614   1.885   9.915   4.295
29536SOL    HW190615   1.884   9.976   4.221
29536SOL    HW290616   1.794   9.890   4.307
29537SOL     OW90617   2.963   9.088   3.637
29537SOL    HW190618   2.945   9.002   3.676
29537SOL    HW290619   2.877   9.127   3.625
29538SOL     OW90620   8.438   6.389   6.764
29538SOL    HW190621   8.367   6.374   6.826
29538SOL    HW290622   8.409   6.463   6.711
29539SOL     OW90623   8.704   0.113   6.526
29539SOL    HW190624   8.644   0.045   6.556
29539SOL    HW290625   8.668   0.142   6.442
29540SOL     OW90626   0.354  10.100   8.341
29540SOL    HW190627   0.386  10.019   8.300
29540SOL    HW290628   0.370  10.167   8.275
29541SOL     OW90629   9.817  10.517   5.583
29541SOL    HW190630   9.900  10.544   5.623
29541SOL    HW290631   9.776  10.599   5.555
29542SOL     OW90632   5.934   7.395   3.700
29542SOL    HW190633   6.001   7.401   3.768
29542SOL    HW290634   5.981   7.415   3.619
29543SOL     OW90635   7.887   7.756   4.077
29543SOL    HW190636   7.830   7.766   4.153
29543SOL    HW290637   7.849   7.683   4.028
29544SOL     OW90638   6.277  10.198   7.924
29544SOL    HW190639   6.373  10.200   7.927
29544SOL    HW290640   6.255  10.104   7.923
29545SOL     OW90641   1.544   7.468   6.129
29545SOL    HW190642   1.550   7.404   6.058
29545SOL    HW290643   1.493   7.423   6.197
29546SOL     OW90644   7.314   5.116   2.610
29546SOL    HW190645   7.386   5.131   2.548
29546SOL    HW290646   7.265   5.198   2.610
29547SOL     OW90647   3.315   1.134   2.729
29547SOL    HW190648   3.312   1.199   2.659
29547SOL    HW290649   3.230   1.091   2.725
29548SOL     OW90650   4.462   0.505   4.339
29548SOL    HW190651   4.445   0.539   4.426
29548SOL    HW290652   4.500   0.418   4.354
29549SOL     OW90653   6.503   9.830   1.866
29549SOL    HW190654   6.438   9.873   1.922
29549SOL    HW290655   6.551   9.902   1.825
29550SOL     OW90656   9.901  10.987   1.191
29550SOL    HW190657   9.835  10.971   1.124
29550SOL    HW290658   9.852  11.013   1.268
29551SOL     OW90659   5.181  10.919   7.353
29551SOL    HW190660   5.143  10.832   7.360
29551SOL    HW290661   5.266  10.904   7.311
29552SOL     OW90662   2.715  10.859   6.619
29552SOL    HW190663   2.678  10.920   6.682
29552SOL    HW290664   2.652  10.787   6.614
29553SOL     OW90665   0.557   2.029   4.574
29553SOL    HW190666   0.485   2.022   4.637
29553SOL    HW290667   0.605   2.107   4.601
29554SOL     OW90668   6.823   1.594   8.353
29554SOL    HW190669   6.834   1.573   8.445
29554SOL    HW290670   6.843   1.687   8.347
29555SOL     OW90671   7.064   6.591   2.379
29555SOL    HW190672   7.023   6.504   2.386
29555SOL    HW290673   7.094   6.596   2.288
29556SOL     OW90674   7.180   5.335   8.999
29556SOL    HW190675   7.275   5.345   9.010
29556SOL    HW290676   7.145   5.424   9.005
29557SOL     OW90677   7.314   7.590   9.547
29557SOL    HW190678   7.265   7.670   9.533
29557SOL    HW290679   7.249   7.520   9.538
29558SOL     OW90680  10.764   3.835   0.105
29558SOL    HW190681  10.823   3.879   0.044
29558SOL    HW290682  10.783   3.874   0.190
29559SOL     OW90683   8.360   3.009   8.683
29559SOL    HW190684   8.267   3.012   8.703
29559SOL    HW290685   8.398   3.078   8.737
29560SOL     OW90686   6.805   7.293   3.291
29560SOL    HW190687   6.797   7.299   3.196
29560SOL    HW290688   6.811   7.199   3.308
29561SOL     OW90689   4.053   3.016   8.969
29561SOL    HW190690   3.968   3.002   8.927
29561SOL    HW290691   4.115   2.964   8.916
29562SOL     OW90692  10.937   6.088   2.121
29562SOL    HW190693  11.006   6.043   2.170
29562SOL    HW290694  10.926   6.172   2.165
29563SOL     OW90695   9.661   9.845   4.274
29563SOL    HW190696   9.732   9.796   4.315
29563SOL    HW290697   9.585   9.786   4.280
29564SOL     OW90698  11.000   1.192   0.752
29564SOL    HW190699  11.087   1.152   0.756
29564SOL    HW290700  11.006   1.268   0.809
29565SOL     OW90701   9.207   0.241   2.800
29565SOL    HW190702   9.231   0.203   2.884
29565SOL    HW290703   9.256   0.190   2.735
29566SOL     OW90704   2.437   6.185   0.848
29566SOL    HW190705   2.496   6.207   0.776
29566SOL    HW290706   2.446   6.090   0.858
29567SOL     OW90707   6.970   0.098   6.611
29567SOL    HW190708   6.942   0.171   6.556
29567SOL    HW290709   6.901   0.032   6.601
29568SOL     OW90710   1.434   0.348   7.604
29568SOL    HW190711   1.343   0.360   7.630
29568SOL    HW290712   1.440   0.389   7.517
29569SOL     OW90713   3.241   2.968   6.639
29569SOL    HW190714   3.269   2.876   6.641
29569SOL    HW290715   3.322   3.017   6.649
29570SOL     OW90716   8.108   4.350   2.271
29570SOL    HW190717   8.067   4.273   2.231
29570SOL    HW290718   8.083   4.422   2.214
29571SOL     OW90719   9.530   3.084   4.160
29571SOL    HW190720   9.594   3.149   4.188
29571SOL    HW290721   9.568   3.046   4.080
29572SOL     OW90722   9.330   2.247   6.779
29572SOL    HW190723   9.383   2.176   6.816
29572SOL    HW290724   9.240   2.217   6.790
29573SOL     OW90725   9.958   5.489   5.190
29573SOL    HW190726   9.955   5.434   5.111
29573SOL    HW290727   9.882   5.461   5.241
29574SOL     OW90728   8.815   7.679   2.222
29574SOL    HW190729   8.768   7.684   2.139
29574SOL    HW290730   8.776   7.748   2.276
29575SOL     OW90731   8.175   9.157   1.582
29575SOL    HW190732   8.144   9.115   1.501
29575SOL    HW290733   8.098   9.160   1.639
29576SOL     OW90734   6.040  10.849   7.627
29576SOL    HW190735   6.083  10.868   7.543
29576SOL    HW290736   6.091  10.777   7.664
29577SOL     OW90737   5.430  11.083   4.357
29577SOL    HW190738   5.410  11.061   4.448
29577SOL    HW290739   5.383  11.017   4.305
29578SOL     OW90740   9.204  10.383   6.184
29578SOL    HW190741   9.220  10.461   6.237
29578SOL    HW290742   9.196  10.311   6.247
29579SOL     OW90743   9.597   3.420   4.334
29579SOL    HW190744   9.605   3.332   4.372
29579SOL    HW290745   9.560   3.473   4.404
29580SOL     OW90746   7.044   5.260   1.661
29580SOL    HW190747   7.032   5.273   1.567
29580SOL    HW290748   6.957   5.236   1.693
29581SOL     OW90749   8.011   1.605   4.878
29581SOL    HW190750   7.962   1.659   4.940
29581SOL    HW290751   7.953   1.596   4.802
29582SOL     OW90752   6.849   2.826   8.232
29582SOL    HW190753   6.870   2.734   8.249
29582SOL    HW290754   6.931   2.863   8.201
29583SOL     OW90755   2.051   8.373   4.147
29583SOL    HW190756   2.072   8.458   4.184
29583SOL    HW290757   2.099   8.310   4.201
29584SOL     OW90758   8.688  10.004   5.470
29584SOL    HW190759   8.740  10.071   5.425
29584SOL    HW290760   8.639  10.052   5.536
29585SOL     OW90761   2.155   0.153   6.452
29585SOL    HW190762   2.135   0.167   6.544
29585SOL    HW290763   2.081   0.103   6.418
29586SOL     OW90764   2.677  10.283   8.748
29586SOL    HW190765   2.599  10.335   8.732
29586SOL    HW290766   2.732  10.299   8.671
29587SOL     OW90767   4.641   6.981   2.265
29587SOL    HW190768   4.686   7.025   2.193
29587SOL    HW290769   4.644   7.044   2.337
29588SOL     OW90770   8.326  10.254   5.915
29588SOL    HW190771   8.420  10.272   5.913
29588SOL    HW290772   8.305  10.246   6.008
29589SOL     OW90773  10.349   5.833   5.849
29589SOL    HW190774  10.338   5.840   5.943
29589SOL    HW290775  10.364   5.923   5.820
29590SOL     OW90776  10.378   3.807   7.010
29590SOL    HW190777  10.413   3.844   6.929
29590SOL    HW290778  10.354   3.717   6.987
29591SOL     OW90779   3.487   7.960   4.263
29591SOL    HW190780   3.437   7.898   4.209
29591SOL    HW290781   3.506   7.911   4.343
29592SOL     OW90782  10.719   3.196   5.005
29592SOL    HW190783  10.679   3.206   5.091
29592SOL    HW290784  10.646   3.206   4.944
29593SOL     OW90785   5.874   0.562   1.655
29593SOL    HW190786   5.806   0.598   1.711
29593SOL    HW290787   5.955   0.605   1.683
29594SOL     OW90788   0.338   8.236   1.188
29594SOL    HW190789   0.309   8.327   1.193
29594SOL    HW290790   0.356   8.211   1.278
29595SOL     OW90791   3.129   8.676   4.510
29595SOL    HW190792   3.191   8.748   4.513
29595SOL    HW290793   3.181   8.599   4.532
29596SOL     OW90794   2.143   3.041   8.663
29596SOL    HW190795   2.093   2.966   8.629
29596SOL    HW290796   2.188   3.007   8.740
29597SOL     OW90797   6.640   2.640   8.437
29597SOL    HW190798   6.735   2.650   8.437
29597SOL    HW290799   6.625   2.550   8.407
29598SOL     OW90800   9.473  10.468   2.626
29598SOL    HW190801   9.555  10.418   2.632
29598SOL    HW290802   9.500  10.554   2.594
29599SOL     OW90803   6.155   1.868   5.366
29599SOL    HW190804   6.151   1.866   5.270
29599SOL    HW290805   6.126   1.956   5.389
29600SOL     OW90806   2.374   9.202   9.912
29600SOL    HW190807   2.287   9.234   9.890
29600SOL    HW290808   2.432   9.247   9.851
29601SOL     OW90809   9.926   0.987   2.948
29601SOL    HW190810   9.885   1.059   2.901
29601SOL    HW290811   9.883   0.909   2.913
29602SOL     OW90812   8.611   2.047   3.047
29602SOL    HW190813   8.526   2.005   3.035
29602SOL    HW290814   8.649   2.003   3.123
29603SOL     OW90815   4.509   2.613   6.814
29603SOL    HW190816   4.542   2.530   6.849
29603SOL    HW290817   4.428   2.629   6.862
29604SOL     OW90818   7.890   8.596   3.504
29604SOL    HW190819   7.889   8.679   3.457
29604SOL    HW290820   7.835   8.538   3.451
29605SOL     OW90821   2.016   3.598   0.891
29605SOL    HW190822   1.952   3.605   0.961
29605SOL    HW290823   1.975   3.539   0.827
29606SOL     OW90824   5.318   1.348   3.712
29606SOL    HW190825   5.356   1.282   3.770
29606SOL    HW290826   5.298   1.300   3.631
29607SOL     OW90827   0.842   9.609   6.828
29607SOL    HW190828   0.911   9.674   6.836
29607SOL    HW290829   0.770   9.655   6.786
29608SOL     OW90830   7.574  10.801  10.810
29608SOL    HW190831   7.662  10.784  10.775
29608SOL    HW290832   7.589  10.835  10.898
29609SOL     OW90833   0.277   5.536   9.692
29609SOL    HW190834   0.258   5.629   9.682
29609SOL    HW290835   0.216   5.493   9.631
29610SOL     OW90836   6.098  10.970   3.866
29610SOL    HW190837   6.024  10.930   3.820
29610SOL    HW290838   6.172  10.961   3.805
29611SOL     OW90839   2.873   4.988   4.526
29611SOL    HW190840   2.875   4.920   4.594
29611SOL    HW290841   2.960   5.029   4.530
29612SOL     OW90842   6.859   8.060   3.836
29612SOL    HW190843   6.839   7.974   3.799
29612SOL    HW290844   6.857   8.046   3.930
29613SOL     OW90845  10.172   1.562   8.851
29613SOL    HW190846  10.121   1.489   8.886
29613SOL    HW290847  10.107   1.630   8.832
29614SOL     OW90848  11.075   7.889   3.756
29614SOL    HW190849  11.150   7.942   3.782
29614SOL    HW290850  11.113   7.814   3.710
29615SOL     OW90851   6.359   6.279   6.877
29615SOL    HW190852   6.354   6.266   6.971
29615SOL    HW290853   6.304   6.209   6.840
29616SOL     OW90854   5.986   6.316   4.751
29616SOL    HW190855   5.939   6.254   4.807
29616SOL    HW290856   5.958   6.294   4.662
29617SOL     OW90857  10.558   6.784   6.640
29617SOL    HW190858  10.496   6.744   6.579
29617SOL    HW290859  10.566   6.720   6.711
29618SOL     OW90860   6.992   1.411   8.758
29618SOL    HW190861   6.989   1.416   8.853
29618SOL    HW290862   7.071   1.359   8.739
29619SOL     OW90863   6.584   5.764  10.675
29619SOL    HW190864   6.542   5.807  10.749
29619SOL    HW290865   6.552   5.811  10.598
29620SOL     OW90866   7.783   9.237  10.265
29620SOL    HW190867   7.865   9.192  10.286
29620SOL    HW290868   7.808   9.306  10.204
29621SOL     OW90869   6.876   9.902   3.016
29621SOL    HW190870   6.829   9.830   3.058
29621SOL    HW290871   6.966   9.891   3.046
29622SOL     OW90872   6.383   8.319   8.231
29622SOL    HW190873   6.381   8.308   8.136
29622SOL    HW290874   6.375   8.230   8.265
29623SOL     OW90875   0.145   6.924   3.333
29623SOL    HW190876   0.138   6.975   3.252
29623SOL    HW290877   0.139   6.833   3.303
29624SOL     OW90878   8.834   4.369   8.749
29624SOL    HW190879   8.755   4.405   8.789
29624SOL    HW290880   8.906   4.416   8.791
29625SOL     OW90881   5.463   0.699   5.616
29625SOL    HW190882   5.521   0.656   5.679
29625SOL    HW290883   5.511   0.777   5.588
29626SOL     OW90884   8.853   1.724   2.814
29626SOL    HW190885   8.781   1.693   2.759
29626SOL    HW290886   8.810   1.755   2.894
29627SOL     OW90887   8.222   2.559   8.229
29627SOL    HW190888   8.296   2.546   8.288
29627SOL    HW290889   8.238   2.643   8.187
29628SOL     OW90890   6.918   0.809   1.804
29628SOL    HW190891   7.001   0.857   1.804
29628SOL    HW290892   6.852   0.874   1.780
29629SOL     OW90893   7.887   0.473   7.761
29629SOL    HW190894   7.923   0.384   7.753
29629SOL    HW290895   7.963   0.530   7.753
29630SOL     OW90896   9.226   2.059   0.271
29630SOL    HW190897   9.149   2.088   0.222
29630SOL    HW290898   9.200   1.974   0.308
29631SOL     OW90899   5.037   4.168   4.882
29631SOL    HW190900   5.123   4.138   4.912
29631SOL    HW290901   5.033   4.140   4.790
29632SOL     OW90902   3.978   9.717   4.449
29632SOL    HW190903   3.884   9.727   4.466
29632SOL    HW290904   3.988   9.737   4.356
29633SOL     OW90905   9.104  10.473   9.623
29633SOL    HW190906   9.077  10.470   9.715
29633SOL    HW290907   9.023  10.489   9.574
29634SOL     OW90908   7.661   9.657   1.558
29634SOL    HW190909   7.688   9.612   1.477
29634SOL    HW290910   7.743   9.688   1.597
29635SOL     OW90911   1.624   9.758  10.123
29635SOL    HW190912   1.593   9.847  10.136
29635SOL    HW290913   1.552   9.703  10.152
29636SOL     OW90914   8.173  10.268   4.724
29636SOL    HW190915   8.174  10.215   4.644
29636SOL    HW290916   8.214  10.212   4.790
29637SOL     OW90917  10.520   8.323   3.811
29637SOL    HW190918  10.486   8.412   3.804
29637SOL    HW290919  10.471   8.273   3.745
29638SOL     OW90920   4.484  10.361   2.400
29638SOL    HW190921   4.474  10.418   2.476
29638SOL    HW290922   4.441  10.279   2.425
29639SOL     OW90923  10.605  11.014   2.535
29639SOL    HW190924  10.632  10.923   2.549
29639SOL    HW290925  10.684  11.059   2.505
29640SOL     OW90926   4.644   0.387   2.111
29640SOL    HW190927   4.606   0.299   2.121
29640SOL    HW290928   4.657   0.397   2.016
29641SOL     OW90929   8.681   8.750   6.309
29641SOL    HW190930   8.711   8.840   6.305
29641SOL    HW290931   8.729   8.706   6.238
29642SOL     OW90932   3.731   9.826   0.353
29642SOL    HW190933   3.755   9.796   0.441
29642SOL    HW290934   3.739   9.748   0.298
29643SOL     OW90935   1.209   3.289   5.447
29643SOL    HW190936   1.134   3.308   5.502
29643SOL    HW290937   1.190   3.203   5.409
29644SOL     OW90938   9.230  10.555   2.746
29644SOL    HW190939   9.190  10.577   2.661
29644SOL    HW290940   9.311  10.510   2.723
29645SOL     OW90941   9.665   8.148   6.322
29645SOL    HW190942   9.676   8.239   6.296
29645SOL    HW290943   9.578   8.144   6.361
29646SOL     OW90944  10.429   2.072   4.943
29646SOL    HW190945  10.425   2.109   5.031
29646SOL    HW290946  10.338   2.052   4.921
29647SOL     OW90947   4.687   7.544   8.923
29647SOL    HW190948   4.691   7.484   8.848
29647SOL    HW290949   4.598   7.578   8.921
29648SOL     OW90950   3.880   2.902   2.390
29648SOL    HW190951   3.907   2.918   2.299
29648SOL    HW290952   3.807   2.961   2.404
29649SOL     OW90953   3.416   1.955   4.951
29649SOL    HW190954   3.362   1.877   4.967
29649SOL    HW290955   3.387   2.018   5.016
29650SOL     OW90956   0.893   2.098   8.373
29650SOL    HW190957   0.903   2.169   8.310
29650SOL    HW290958   0.822   2.045   8.337
29651SOL     OW90959  10.217   3.529   8.620
29651SOL    HW190960  10.215   3.433   8.614
29651SOL    HW290961  10.187   3.548   8.709
29652SOL     OW90962   9.067   2.086   3.456
29652SOL    HW190963   9.061   1.991   3.465
29652SOL    HW290964   8.978   2.117   3.472
29653SOL     OW90965   9.004   3.077   6.187
29653SOL    HW190966   8.935   3.133   6.223
29653SOL    HW290967   8.958   3.001   6.152
29654SOL     OW90968   4.760   8.223   6.604
29654SOL    HW190969   4.847   8.201   6.571
29654SOL    HW290970   4.706   8.229   6.525
29655SOL     OW90971   9.063   8.579   1.383
29655SOL    HW190972   8.993   8.517   1.406
29655SOL    HW290973   9.049   8.654   1.440
29656SOL     OW90974   6.054   7.742   5.030
29656SOL    HW190975   6.063   7.648   5.010
29656SOL    HW290976   6.033   7.745   5.123
29657SOL     OW90977   7.338  10.501   3.651
29657SOL    HW190978   7.399  10.460   3.712
29657SOL    HW290979   7.252  10.469   3.677
29658SOL     OW90980   7.155   0.184   8.447
29658SOL    HW190981   7.110   0.255   8.401
29658SOL    HW290982   7.140   0.107   8.392
29659SOL     OW90983   9.074   1.200   8.704
29659SOL    HW190984   9.143   1.148   8.744
29659SOL    HW290985   8.997   1.183   8.758
29660SOL     OW90986   5.193   3.353  10.335
29660SOL    HW190987   5.177   3.388  10.247
29660SOL    HW290988   5.196   3.258  10.323
29661SOL     OW90989   8.658   7.275   2.704
29661SOL    HW190990   8.599   7.223   2.759
29661SOL    HW290991   8.746   7.255   2.737
29662SOL     OW90992  10.813   5.489   1.609
29662SOL    HW190993  10.762   5.498   1.528
29662SOL    HW290994  10.804   5.573   1.653
29663SOL     OW90995   3.640   2.927   0.096
29663SOL    HW190996   3.617   3.017   0.076
29663SOL    HW290997   3.659   2.887   0.011
29664SOL     OW90998   0.750  10.992   6.479
29664SOL    HW190999   0.789  11.074   6.448
29664SOL    HW291000   0.657  11.001   6.458
29665SOL     OW91001   7.098   3.709   3.129
29665SOL    HW191002   7.161   3.774   3.158
29665SOL    HW291003   7.137   3.625   3.154
29666SOL     OW91004   2.514   7.608   2.381
29666SOL    HW191005   2.588   7.624   2.322
29666SOL    HW291006   2.452   7.557   2.328
29667SOL     OW91007  10.660  10.660   5.551
29667SOL    HW191008  10.604  10.685   5.624
29667SOL    HW291009  10.748  10.684   5.578
29668SOL     OW91010   1.587   4.586  10.487
29668SOL    HW191011   1.515   4.551  10.540
29668SOL    HW291012   1.569   4.679  10.481
29669SOL     OW91013   9.557   5.274   8.643
29669SOL    HW191014   9.476   5.281   8.593
29669SOL    HW291015   9.549   5.341   8.711
29670SOL     OW91016   5.754   2.714   7.144
29670SOL    HW191017   5.748   2.786   7.082
29670SOL    HW291018   5.688   2.734   7.210
29671SOL     OW91019  10.644   5.935   0.326
29671SOL    HW191020  10.563   5.915   0.372
29671SOL    HW291021  10.713   5.893   0.378
29672SOL     OW91022   7.942   0.446   8.085
29672SOL    HW191023   7.866   0.492   8.049
29672SOL    HW291024   8.017   0.488   8.043
29673SOL     OW91025   3.039   0.586   1.079
29673SOL    HW191026   2.946   0.565   1.074
29673SOL    HW291027   3.042   0.680   1.093
29674SOL     OW91028   5.649   1.852   2.852
29674SOL    HW191029   5.612   1.779   2.902
29674SOL    HW291030   5.744   1.842   2.862
29675SOL     OW91031   6.403   4.472   7.791
29675SOL    HW191032   6.401   4.538   7.722
29675SOL    HW291033   6.488   4.428   7.779
29676SOL     OW91034   6.340  10.952  10.257
29676SOL    HW191035   6.251  10.947  10.223
29676SOL    HW291036   6.395  10.941  10.179
29677SOL     OW91037   6.258   4.511   8.344
29677SOL    HW191038   6.346   4.474   8.343
29677SOL    HW291039   6.200   4.434   8.341
29678SOL     OW91040   5.856   7.126   3.839
29678SOL    HW191041   5.903   7.199   3.798
29678SOL    HW291042   5.910   7.049   3.819
29679SOL     OW91043  10.882   1.396   5.252
29679SOL    HW191044  10.972   1.393   5.284
29679SOL    HW291045  10.885   1.349   5.168
29680SOL     OW91046   0.552   7.983   8.217
29680SOL    HW191047   0.643   7.983   8.186
29680SOL    HW291048   0.535   7.892   8.241
29681SOL     OW91049   9.272   8.860   0.265
29681SOL    HW191050   9.349   8.902   0.226
29681SOL    HW291051   9.233   8.811   0.192
29682SOL     OW91052   5.571   1.996   2.575
29682SOL    HW191053   5.488   2.037   2.549
29682SOL    HW291054   5.563   1.905   2.546
29683SOL     OW91055   7.321  10.614   0.669
29683SOL    HW191056   7.403  10.662   0.681
29683SOL    HW291057   7.345  10.522   0.677
29684SOL     OW91058   4.181   2.408   4.486
29684SOL    HW191059   4.224   2.322   4.484
29684SOL    HW291060   4.129   2.411   4.405
29685SOL     OW91061   8.424   1.613   0.740
29685SOL    HW191062   8.511   1.647   0.759
29685SOL    HW291063   8.364   1.677   0.777
29686SOL     OW91064   4.465   1.875   4.681
29686SOL    HW191065   4.549   1.848   4.718
29686SOL    HW291066   4.487   1.904   4.592
29687SOL     OW91067   6.706   1.987   4.610
29687SOL    HW191068   6.633   2.018   4.663
29687SOL    HW291069   6.755   2.066   4.588
29688SOL     OW91070  10.116   1.034   0.027
29688SOL    HW191071  10.078   0.970  -0.033
29688SOL    HW291072  10.116   1.116  -0.022
29689SOL     OW91073   3.205  10.841   4.717
29689SOL    HW191074   3.189  10.935   4.708
29689SOL    HW291075   3.179  10.804   4.632
29690SOL     OW91076   0.297   8.701   2.654
29690SOL    HW191077   0.242   8.758   2.707
29690SOL    HW291078   0.236   8.662   2.591
29691SOL     OW91079  10.233   0.482   1.881
29691SOL    HW191080  10.158   0.516   1.930
29691SOL    HW291081  10.276   0.421   1.941
29692SOL     OW91082   2.571   9.482   8.868
29692SOL    HW191083   2.585   9.393   8.901
29692SOL    HW291084   2.561   9.535   8.946
29693SOL     OW91085   5.948   9.210   9.439
29693SOL    HW191086   6.015   9.274   9.414
29693SOL    HW291087   5.927   9.164   9.357
29694SOL     OW91088   8.197   7.660   0.420
29694SOL    HW191089   8.169   7.628   0.506
29694SOL    HW291090   8.196   7.582   0.364
29695SOL     OW91091   5.275   1.169  10.114
29695SOL    HW191092   5.342   1.213  10.061
29695SOL    HW291093   5.206   1.234  10.124
29696SOL     OW91094  10.541   7.181   5.720
29696SOL    HW191095  10.601   7.247   5.685
29696SOL    HW291096  10.471   7.176   5.655
29697SOL     OW91097   8.219   9.896   5.878
29697SOL    HW191098   8.265   9.911   5.960
29697SOL    HW291099   8.273   9.938   5.811
29698SOL     OW91100   1.422  10.420   8.673
29698SOL    HW191101   1.376  10.364   8.611
29698SOL    HW291102   1.354  10.455   8.730
29699SOL     OW91103  10.850   1.106   9.402
29699SOL    HW191104  10.855   1.014   9.376
29699SOL    HW291105  10.916   1.150   9.348
29700SOL     OW91106   0.620   0.579   3.320
29700SOL    HW191107   0.586   0.542   3.401
29700SOL    HW291108   0.685   0.643   3.348
29701SOL     OW91109  10.011   9.604   4.687
29701SOL    HW191110  10.003   9.692   4.724
29701SOL    HW291111   9.951   9.604   4.612
29702SOL     OW91112   0.215   3.671   6.331
29702SOL    HW191113   0.232   3.643   6.241
29702SOL    HW291114   0.246   3.761   6.334
29703SOL     OW91115   1.286   5.671   3.017
29703SOL    HW191116   1.219   5.713   3.071
29703SOL    HW291117   1.280   5.715   2.932
29704SOL     OW91118  11.074   1.211   2.957
29704SOL    HW191119  11.112   1.297   2.942
29704SOL    HW291120  11.094   1.162   2.877
29705SOL     OW91121   8.644   8.588  10.943
29705SOL    HW191122   8.671   8.616  11.030
29705SOL    HW291123   8.644   8.492  10.947
29706SOL     OW91124   4.473   5.921   3.644
29706SOL    HW191125   4.464   5.860   3.570
29706SOL    HW291126   4.384   5.947   3.664
29707SOL     OW91127   8.035   8.291   0.547
29707SOL    HW191128   8.123   8.252   0.546
29707SOL    HW291129   8.009   8.289   0.639
29708SOL     OW91130   7.972   8.796   5.466
29708SOL    HW191131   7.940   8.796   5.375
29708SOL    HW291132   7.916   8.859   5.511
29709SOL     OW91133   9.040   9.133   3.139
29709SOL    HW191134   8.965   9.185   3.167
29709SOL    HW291135   9.004   9.045   3.126
29710SOL     OW91136   9.016   5.120   4.530
29710SOL    HW191137   9.042   5.055   4.595
29710SOL    HW291138   8.921   5.123   4.536
29711SOL     OW91139   2.250   6.006   4.532
29711SOL    HW191140   2.339   5.997   4.496
29711SOL    HW291141   2.193   5.981   4.459
29712SOL     OW91142   0.634   1.192  10.449
29712SOL    HW191143   0.575   1.119  10.428
29712SOL    HW291144   0.576   1.267  10.460
29713SOL     OW91145   9.712   3.857   6.034
29713SOL    HW191146   9.752   3.943   6.043
29713SOL    HW291147   9.618   3.874   6.029
29714SOL     OW91148   4.427   1.522   4.353
29714SOL    HW191149   4.512   1.496   4.390
29714SOL    HW291150   4.447   1.598   4.299
29715SOL     OW91151   8.194  10.855   8.032
29715SOL    HW191152   8.180  10.789   8.099
29715SOL    HW291153   8.286  10.845   8.007
29716SOL     OW91154   1.865   1.452   8.288
29716SOL    HW191155   1.829   1.370   8.323
29716SOL    HW291156   1.931   1.479   8.352
29717SOL     OW91157   6.302   0.536   5.377
29717SOL    HW191158   6.390   0.547   5.412
29717SOL    HW291159   6.261   0.471   5.434
29718SOL     OW91160  11.009   6.816   7.433
29718SOL    HW191161  11.041   6.906   7.438
29718SOL    HW291162  11.044   6.782   7.350
29719SOL     OW91163   3.799   1.059   1.300
29719SOL    HW191164   3.763   1.002   1.232
29719SOL    HW291165   3.884   1.087   1.265
29720SOL     OW91166   0.734   9.993   6.941
29720SOL    HW191167   0.655   9.939   6.940
29720SOL    HW291168   0.709  10.073   6.896
29721SOL     OW91169  10.579   1.654   7.280
29721SOL    HW191170  10.559   1.596   7.354
29721SOL    HW291171  10.501   1.708   7.269
29722SOL     OW91172   5.420  10.672   7.415
29722SOL    HW191173   5.329  10.687   7.391
29722SOL    HW291174   5.426  10.578   7.429
29723SOL     OW91175   7.497   9.343   9.199
29723SOL    HW191176   7.473   9.295   9.278
29723SOL    HW291177   7.548   9.417   9.230
29724SOL     OW91178   4.278   7.224   4.265
29724SOL    HW191179   4.197   7.269   4.287
29724SOL    HW291180   4.261   7.185   4.179
29725SOL     OW91181   3.427   5.026   3.909
29725SOL    HW191182   3.512   5.030   3.952
29725SOL    HW291183   3.387   5.111   3.926
29726SOL     OW91184   5.098   1.934   2.302
29726SOL    HW191185   5.054   1.970   2.379
29726SOL    HW291186   5.034   1.944   2.231
29727SOL     OW91187   5.396   1.081   2.559
29727SOL    HW191188   5.341   1.075   2.637
29727SOL    HW291189   5.436   0.994   2.551
29728SOL     OW91190   9.486   0.694   4.284
29728SOL    HW191191   9.431   0.616   4.273
29728SOL    HW291192   9.469   0.746   4.205
29729SOL     OW91193   5.425   9.999   2.765
29729SOL    HW191194   5.454   9.914   2.732
29729SOL    HW291195   5.506  10.043   2.791
29730SOL     OW91196  10.126   6.692   0.655
29730SOL    HW191197  10.091   6.611   0.617
29730SOL    HW291198  10.218   6.672   0.672
29731SOL     OW91199   0.686   7.128   6.510
29731SOL    HW191200   0.634   7.111   6.431
29731SOL    HW291201   0.665   7.055   6.569
29732SOL     OW91202   1.663   4.330   7.430
29732SOL    HW191203   1.624   4.277   7.499
29732SOL    HW291204   1.750   4.292   7.418
29733SOL     OW91205   8.916   6.921   4.629
29733SOL    HW191206   8.933   6.827   4.637
29733SOL    HW291207   8.853   6.927   4.557
29734SOL     OW91208   5.364   7.395   8.403
29734SOL    HW191209   5.287   7.427   8.449
29734SOL    HW291210   5.395   7.470   8.353
29735SOL     OW91211   4.429   8.930   1.010
29735SOL    HW191212   4.446   9.009   0.958
29735SOL    HW291213   4.377   8.960   1.084
29736SOL     OW91214   0.033   9.993   8.782
29736SOL    HW191215   0.075   9.978   8.866
29736SOL    HW291216   0.066   9.923   8.725
29737SOL     OW91217  10.203   7.124   3.000
29737SOL    HW191218  10.251   7.074   2.933
29737SOL    HW291219  10.116   7.137   2.962
29738SOL     OW91220   7.740  10.632   7.560
29738SOL    HW191221   7.746  10.720   7.521
29738SOL    HW291222   7.752  10.573   7.486
29739SOL     OW91223   0.578   1.452  10.229
29739SOL    HW191224   0.632   1.496  10.163
29739SOL    HW291225   0.584   1.359  10.207
29740SOL     OW91226   0.864   8.058   4.813
29740SOL    HW191227   0.905   8.073   4.898
29740SOL    HW291228   0.930   8.087   4.749
29741SOL     OW91229  10.716   3.659   3.636
29741SOL    HW191230  10.744   3.731   3.691
29741SOL    HW291231  10.624   3.645   3.658
29742SOL     OW91232   0.716   3.400   4.964
29742SOL    HW191233   0.660   3.323   4.974
29742SOL    HW291234   0.776   3.396   5.038
29743SOL     OW91235   2.744   5.432  10.465
29743SOL    HW191236   2.661   5.441  10.419
29743SOL    HW291237   2.753   5.513  10.514
29744SOL     OW91238   3.882   7.264   7.901
29744SOL    HW191239   3.796   7.223   7.904
29744SOL    HW291240   3.920   7.234   7.818
29745SOL     OW91241   9.087   7.646   6.417
29745SOL    HW191242   9.015   7.665   6.477
29745SOL    HW291243   9.088   7.720   6.356
29746SOL     OW91244   8.166   6.742   7.290
29746SOL    HW191245   8.193   6.756   7.199
29746SOL    HW291246   8.233   6.684   7.326
29747SOL     OW91247   2.565   0.649   6.027
29747SOL    HW191248   2.492   0.696   5.988
29747SOL    HW291249   2.578   0.690   6.112
29748SOL     OW91250   0.032  10.799   6.741
29748SOL    HW191251   0.060  10.847   6.819
29748SOL    HW291252  -0.057  10.831   6.723
29749SOL     OW91253  10.819  10.929   3.700
29749SOL    HW191254  10.826  10.896   3.610
29749SOL    HW291255  10.882  10.877   3.749
29750SOL     OW91256   6.894   0.184   7.540
29750SOL    HW191257   6.871   0.205   7.630
29750SOL    HW291258   6.934   0.264   7.505
29751SOL     OW91259   7.141   4.155   5.926
29751SOL    HW191260   7.211   4.094   5.903
29751SOL    HW291261   7.083   4.104   5.983
29752SOL     OW91262   9.341   9.573   8.774
29752SOL    HW191263   9.342   9.661   8.812
29752SOL    HW291264   9.433   9.548   8.768
29753SOL     OW91265   2.943   0.574   3.730
29753SOL    HW191266   2.991   0.496   3.759
29753SOL    HW291267   2.971   0.587   3.639
29754SOL     OW91268   1.684   2.260   0.081
29754SOL    HW191269   1.601   2.305   0.096
29754SOL    HW291270   1.715   2.237   0.169
29755SOL     OW91271   2.970   1.177   5.862
29755SOL    HW191272   2.887   1.149   5.824
29755SOL    HW291273   3.026   1.099   5.857
29756SOL     OW91274   6.451   1.358   2.692
29756SOL    HW191275   6.487   1.391   2.609
29756SOL    HW291276   6.369   1.315   2.667
29757SOL     OW91277   8.985   0.550   8.720
29757SOL    HW191278   8.922   0.532   8.789
29757SOL    HW291279   8.977   0.475   8.660
29758SOL     OW91280   8.022   7.990   4.824
29758SOL    HW191281   8.032   8.007   4.730
29758SOL    HW291282   8.025   7.894   4.831
29759SOL     OW91283   9.289  10.347   1.704
29759SOL    HW191284   9.347  10.326   1.630
29759SOL    HW291285   9.226  10.275   1.706
29760SOL     OW91286   3.684  10.349   4.789
29760SOL    HW191287   3.608  10.333   4.732
29760SOL    HW291288   3.729  10.423   4.748
29761SOL     OW91289   6.096   1.813   5.100
29761SOL    HW191290   6.027   1.876   5.080
29761SOL    HW291291   6.169   1.839   5.044
29762SOL     OW91292   1.810   1.213   0.780
29762SOL    HW191293   1.872   1.271   0.736
29762SOL    HW291294   1.776   1.157   0.710
29763SOL     OW91295   8.727   0.582   8.343
29763SOL    HW191296   8.644   0.555   8.303
29763SOL    HW291297   8.708   0.587   8.436
29764SOL     OW91298   0.786   4.153   8.301
29764SOL    HW191299   0.813   4.104   8.378
29764SOL    HW291300   0.717   4.099   8.262
29765SOL     OW91301   7.074   1.385   4.653
29765SOL    HW191302   7.084   1.460   4.594
29765SOL    HW291303   6.980   1.372   4.659
29766SOL     OW91304   8.873  11.054   7.565
29766SOL    HW191305   8.788  11.095   7.548
29766SOL    HW291306   8.856  10.993   7.637
29767SOL     OW91307   8.731   0.967   3.304
29767SOL    HW191308   8.804   1.005   3.254
29767SOL    HW291309   8.680   0.919   3.238
29768SOL     OW91310   8.029   0.172   4.449
29768SOL    HW191311   8.027   0.230   4.525
29768SOL    HW291312   8.113   0.191   4.407
29769SOL     OW91313   5.929   9.512   5.897
29769SOL    HW191314   5.851   9.514   5.952
29769SOL    HW291315   5.997   9.555   5.949
29770SOL     OW91316   9.109   5.693   0.787
29770SOL    HW191317   9.168   5.623   0.815
29770SOL    HW291318   9.113   5.690   0.691
29771SOL     OW91319  10.288  11.070   5.692
29771SOL    HW191320  10.373  11.042   5.657
29771SOL    HW291321  10.274  11.015   5.769
29772SOL     OW91322   8.632   5.436   4.158
29772SOL    HW191323   8.681   5.416   4.237
29772SOL    HW291324   8.684   5.397   4.087
29773SOL     OW91325   5.407   8.611   0.936
29773SOL    HW191326   5.434   8.648   1.020
29773SOL    HW291327   5.351   8.537   0.959
29774SOL     OW91328  10.138   2.717   9.828
29774SOL    HW191329  10.233   2.716   9.838
29774SOL    HW291330  10.106   2.761   9.906
29775SOL     OW91331   4.811   2.762   9.534
29775SOL    HW191332   4.881   2.772   9.598
29775SOL    HW291333   4.732   2.788   9.580
29776SOL     OW91334   6.808   1.719   0.466
29776SOL    HW191335   6.769   1.717   0.378
29776SOL    HW291336   6.857   1.801   0.469
29777SOL     OW91337   0.285   1.749   4.789
29777SOL    HW191338   0.232   1.777   4.714
29777SOL    HW291339   0.367   1.718   4.750
29778SOL     OW91340   8.010  10.847   6.704
29778SOL    HW191341   8.106  10.849   6.702
29778SOL    HW291342   7.984  10.931   6.666
29779SOL     OW91343   9.802   7.981   3.768
29779SOL    HW191344   9.839   7.978   3.679
29779SOL    HW291345   9.859   8.041   3.815
29780SOL     OW91346   4.587   1.194   7.084
29780SOL    HW191347   4.537   1.275   7.091
29780SOL    HW291348   4.660   1.205   7.144
29781SOL     OW91349   6.318   7.598   8.253
29781SOL    HW191350   6.342   7.615   8.344
29781SOL    HW291351   6.368   7.662   8.202
29782SOL     OW91352   7.219   2.341   7.952
29782SOL    HW191353   7.199   2.432   7.932
29782SOL    HW291354   7.230   2.300   7.866
29783SOL     OW91355   1.115   2.153   0.739
29783SOL    HW191356   1.135   2.193   0.654
29783SOL    HW291357   1.197   2.111   0.765
29784SOL     OW91358   5.773  10.805  10.313
29784SOL    HW191359   5.776  10.709  10.309
29784SOL    HW291360   5.719  10.830  10.238
29785SOL     OW91361   7.518   2.770   6.851
29785SOL    HW191362   7.532   2.683   6.812
29785SOL    HW291363   7.475   2.821   6.782
29786SOL     OW91364   7.907   9.507   6.994
29786SOL    HW191365   7.889   9.474   7.082
29786SOL    HW291366   7.965   9.582   7.008
29787SOL     OW91367   5.256   5.856   9.624
29787SOL    HW191368   5.251   5.856   9.719
29787SOL    HW291369   5.252   5.763   9.600
29788SOL     OW91370   7.431   4.121   2.172
29788SOL    HW191371   7.466   4.078   2.250
29788SOL    HW291372   7.402   4.207   2.202
29789SOL     OW91373   3.025   9.901   2.183
29789SOL    HW191374   3.063   9.962   2.246
29789SOL    HW291375   2.986   9.832   2.237
29790SOL     OW91376   4.318   1.446   3.590
29790SOL    HW191377   4.274   1.421   3.508
29790SOL    HW291378   4.410   1.422   3.576
29791SOL     OW91379   6.916   9.153   3.973
29791SOL    HW191380   6.941   9.222   3.911
29791SOL    HW291381   6.965   9.076   3.943
29792SOL     OW91382   2.386  10.859  10.699
29792SOL    HW191383   2.480  10.842  10.698
29792SOL    HW291384   2.354  10.814  10.621
29793SOL     OW91385   2.548   2.462   4.088
29793SOL    HW191386   2.489   2.413   4.145
29793SOL    HW291387   2.527   2.431   3.999
29794SOL     OW91388   4.591   0.263   4.395
29794SOL    HW191389   4.551   0.186   4.354
29794SOL    HW291390   4.618   0.232   4.481
29795SOL     OW91391   7.587   0.341  10.432
29795SOL    HW191392   7.523   0.353  10.502
29795SOL    HW291393   7.567   0.410  10.369
29796SOL     OW91394   8.118   8.760   1.162
29796SOL    HW191395   8.125   8.850   1.131
29796SOL    HW291396   8.159   8.761   1.248
29797SOL     OW91397   4.221   0.205   9.147
29797SOL    HW191398   4.264   0.186   9.063
29797SOL    HW291399   4.292   0.203   9.211
29798SOL     OW91400   7.129   2.712   9.680
29798SOL    HW191401   7.128   2.760   9.597
29798SOL    HW291402   7.213   2.666   9.679
29799SOL     OW91403   5.041   9.157   4.852
29799SOL    HW191404   5.072   9.125   4.936
29799SOL    HW291405   5.042   9.252   4.860
29800SOL     OW91406   8.213  10.784   9.701
29800SOL    HW191407   8.132  10.813   9.743
29800SOL    HW291408   8.189  10.770   9.609
29801SOL     OW91409  10.880   8.934   1.122
29801SOL    HW191410  10.831   8.941   1.040
29801SOL    HW291411  10.873   9.020   1.161
29802SOL     OW91412   7.242   4.534   3.096
29802SOL    HW191413   7.332   4.504   3.106
29802SOL    HW291414   7.196   4.498   3.172
29803SOL     OW91415   3.087  10.821   9.837
29803SOL    HW191416   3.143  10.876   9.783
29803SOL    HW291417   3.033  10.773   9.774
29804SOL     OW91418   6.722   9.923   4.855
29804SOL    HW191419   6.659   9.968   4.910
29804SOL    HW291420   6.672   9.897   4.777
29805SOL     OW91421   7.535   7.122   7.714
29805SOL    HW191422   7.559   7.211   7.691
29805SOL    HW291423   7.611   7.088   7.761
29806SOL     OW91424   9.345   2.693   6.325
29806SOL    HW191425   9.336   2.787   6.337
29806SOL    HW291426   9.339   2.656   6.413
29807SOL     OW91427   2.812   0.398   4.546
29807SOL    HW191428   2.734   0.397   4.602
29807SOL    HW291429   2.879   0.443   4.597
29808SOL     OW91430   9.293   1.868  10.468
29808SOL    HW191431   9.361   1.818  10.513
29808SOL    HW291432   9.304   1.846  10.375
29809SOL     OW91433   5.252  10.503   8.706
29809SOL    HW191434   5.243  10.575   8.644
29809SOL    HW291435   5.243  10.544   8.792
29810SOL     OW91436   7.981   1.298   5.863
29810SOL    HW191437   7.989   1.206   5.837
29810SOL    HW291438   7.940   1.295   5.949
29811SOL     OW91439   7.373   9.380   5.349
29811SOL    HW191440   7.457   9.426   5.348
29811SOL    HW291441   7.346   9.378   5.257
29812SOL     OW91442   5.215  10.147   3.728
29812SOL    HW191443   5.224  10.107   3.641
29812SOL    HW291444   5.135  10.199   3.722
29813SOL     OW91445   8.272   7.469   7.971
29813SOL    HW191446   8.278   7.484   7.876
29813SOL    HW291447   8.361   7.444   7.997
29814SOL     OW91448   6.210   5.548   7.065
29814SOL    HW191449   6.193   5.462   7.025
29814SOL    HW291450   6.196   5.534   7.158
29815SOL     OW91451   9.759   0.319   9.233
29815SOL    HW191452   9.795   0.232   9.217
29815SOL    HW291453   9.741   0.354   9.145
29816SOL     OW91454   9.487   8.562   4.075
29816SOL    HW191455   9.435   8.488   4.108
29816SOL    HW291456   9.436   8.596   4.001
29817SOL     OW91457   8.810   8.125   4.596
29817SOL    HW191458   8.764   8.195   4.550
29817SOL    HW291459   8.862   8.082   4.528
29818SOL     OW91460   5.228   2.362   6.695
29818SOL    HW191461   5.234   2.344   6.601
29818SOL    HW291462   5.319   2.368   6.724
29819SOL     OW91463   4.190   9.966   9.135
29819SOL    HW191464   4.192   9.999   9.045
29819SOL    HW291465   4.194  10.044   9.190
29820SOL     OW91466   4.703  10.882   6.460
29820SOL    HW191467   4.735  10.885   6.369
29820SOL    HW291468   4.783  10.878   6.513
29821SOL     OW91469   3.009   1.033   4.185
29821SOL    HW191470   3.026   0.968   4.253
29821SOL    HW291471   2.951   1.097   4.227
29822SOL     OW91472   8.771   1.635   9.441
29822SOL    HW191473   8.836   1.650   9.509
29822SOL    HW291474   8.688   1.629   9.488
29823SOL     OW91475   5.475   0.114   4.115
29823SOL    HW191476   5.560   0.081   4.086
29823SOL    HW291477   5.470   0.090   4.207
29824SOL     OW91478   7.959   9.799   8.455
29824SOL    HW191479   7.989   9.711   8.480
29824SOL    HW291480   7.981   9.854   8.530
29825SOL     OW91481   9.513   6.265   7.293
29825SOL    HW191482   9.439   6.210   7.319
29825SOL    HW291483   9.584   6.238   7.351
29826SOL     OW91484  10.256   9.002   6.796
29826SOL    HW191485  10.166   8.998   6.764
29826SOL    HW291486  10.291   8.914   6.780
29827SOL     OW91487   8.823   0.889   5.970
29827SOL    HW191488   8.849   0.843   5.889
29827SOL    HW291489   8.729   0.875   5.975
29828SOL     OW91490   6.616   3.430   4.850
29828SOL    HW191491   6.667   3.491   4.903
29828SOL    HW291492   6.607   3.352   4.904
29829SOL     OW91493   4.771   5.062   0.835
29829SOL    HW191494   4.766   4.992   0.900
29829SOL    HW291495   4.680   5.082   0.815
29830SOL     OW91496   6.211   2.315   1.262
29830SOL    HW191497   6.270   2.387   1.240
29830SOL    HW291498   6.152   2.308   1.187
29831SOL     OW91499   5.641   5.529   3.339
29831SOL    HW191500   5.726   5.551   3.377
29831SOL    HW291501   5.577   5.557   3.404
29832SOL     OW91502  10.909  10.986  10.244
29832SOL    HW191503  10.920  11.035  10.325
29832SOL    HW291504  10.842  11.034  10.196
29833SOL     OW91505   8.004   0.540   0.575
29833SOL    HW191506   8.021   0.581   0.490
29833SOL    HW291507   7.910   0.551   0.589
29834SOL     OW91508   8.821  10.231   3.314
29834SOL    HW191509   8.907  10.225   3.272
29834SOL    HW291510   8.793  10.140   3.325
29835SOL     OW91511   6.244   0.337  10.392
29835SOL    HW191512   6.316   0.398  10.408
29835SOL    HW291513   6.286   0.251  10.389
29836SOL     OW91514   6.052   1.916   0.571
29836SOL    HW191515   5.984   1.886   0.631
29836SOL    HW291516   6.016   1.899   0.484
29837SOL     OW91517   3.638   3.098   9.316
29837SOL    HW191518   3.724   3.139   9.313
29837SOL    HW291519   3.625   3.074   9.407
29838SOL     OW91520   8.457   1.020  10.468
29838SOL    HW191521   8.481   0.933  10.434
29838SOL    HW291522   8.363   1.026  10.452
29839SOL     OW91523   0.113   1.428   7.519
29839SOL    HW191524   0.041   1.389   7.568
29839SOL    HW291525   0.093   1.409   7.427
29840SOL     OW91526   4.603   6.417   7.935
29840SOL    HW191527   4.629   6.325   7.926
29840SOL    HW291528   4.569   6.441   7.849
29841SOL     OW91529   8.179  10.448  10.727
29841SOL    HW191530   8.127  10.471  10.803
29841SOL    HW291531   8.148  10.361  10.702
29842SOL     OW91532   1.059   2.077   4.176
29842SOL    HW191533   1.119   2.064   4.249
29842SOL    HW291534   0.972   2.067   4.214
29843SOL     OW91535   4.867   1.059   3.094
29843SOL    HW191536   4.881   1.149   3.121
29843SOL    HW291537   4.867   1.062   2.998
29844SOL     OW91538   7.675   7.604   7.276
29844SOL    HW191539   7.714   7.619   7.190
29844SOL    HW291540   7.745   7.623   7.338
29845SOL     OW91541  10.851  10.905   6.160
29845SOL    HW191542  10.839  10.963   6.235
29845SOL    HW291543  10.924  10.943   6.111
29846SOL     OW91544   1.620  10.787   0.425
29846SOL    HW191545   1.612  10.728   0.500
29846SOL    HW291546   1.538  10.776   0.377
29847SOL     OW91547   7.402   2.144   8.073
29847SOL    HW191548   7.355   2.202   8.013
29847SOL    HW291549   7.491   2.140   8.037
29848SOL     OW91550   0.872   9.726   5.716
29848SOL    HW191551   0.940   9.724   5.649
29848SOL    HW291552   0.856   9.633   5.736
29849SOL     OW91553   5.062   2.619   7.501
29849SOL    HW191554   4.987   2.648   7.553
29849SOL    HW291555   5.065   2.679   7.426
29850SOL     OW91556   9.385  10.204   4.829
29850SOL    HW191557   9.336  10.122   4.818
29850SOL    HW291558   9.403  10.209   4.923
29851SOL     OW91559   3.391   8.594   6.617
29851SOL    HW191560   3.475   8.556   6.590
29851SOL    HW291561   3.326   8.543   6.569
29852SOL     OW91562   9.208   9.035   7.020
29852SOL    HW191563   9.124   9.067   6.988
29852SOL    HW291564   9.186   8.980   7.095
29853SOL     OW91565  10.634   7.072   9.702
29853SOL    HW191566  10.619   7.014   9.777
29853SOL    HW291567  10.670   7.152   9.740
29854SOL     OW91568   3.984   0.900   4.838
29854SOL    HW191569   3.962   0.986   4.873
29854SOL    HW291570   4.074   0.885   4.867
29855SOL     OW91571   2.917   1.345   0.503
29855SOL    HW191572   2.873   1.364   0.585
29855SOL    HW291573   2.847   1.342   0.438
29856SOL     OW91574   3.794   7.724   1.749
29856SOL    HW191575   3.796   7.783   1.674
29856SOL    HW291576   3.765   7.778   1.822
29857SOL     OW91577   5.699   2.967   5.756
29857SOL    HW191578   5.683   3.030   5.826
29857SOL    HW291579   5.685   3.016   5.675
29858SOL     OW91580   9.580   2.678   5.950
29858SOL    HW191581   9.492   2.687   5.913
29858SOL    HW291582   9.575   2.721   6.035
29859SOL     OW91583   9.126   1.462   9.054
29859SOL    HW191584   9.066   1.496   8.988
29859SOL    HW291585   9.073   1.456   9.133
29860SOL     OW91586   7.102   3.413   9.970
29860SOL    HW191587   7.041   3.443  10.037
29860SOL    HW291588   7.060   3.435   9.887
29861SOL     OW91589  10.386   3.987   2.650
29861SOL    HW191590  10.350   4.073   2.628
29861SOL    HW291591  10.471   3.985   2.606
29862SOL     OW91592  10.719   3.380   6.569
29862SOL    HW191593  10.690   3.387   6.660
29862SOL    HW291594  10.814   3.394   6.573
29863SOL     OW91595   9.944  10.996   3.390
29863SOL    HW191596   9.877  10.952   3.337
29863SOL    HW291597   9.949  11.084   3.353
29864SOL     OW91598   0.027   2.022   7.903
29864SOL    HW191599   0.001   1.942   7.857
29864SOL    HW291600   0.031   2.088   7.834
29865SOL     OW91601  10.473  10.658   8.660
29865SOL    HW191602  10.463  10.666   8.565
29865SOL    HW291603  10.475  10.564   8.676
29866SOL     OW91604   8.379   1.129   9.819
29866SOL    HW191605   8.340   1.209   9.784
29866SOL    HW291606   8.473   1.140   9.805
29867SOL     OW91607   8.046   2.441   2.664
29867SOL    HW191608   8.046   2.406   2.574
29867SOL    HW291609   8.025   2.365   2.718
29868SOL     OW91610  10.553   2.859   1.065
29868SOL    HW191611  10.545   2.770   1.031
29868SOL    HW291612  10.647   2.877   1.064
29869SOL     OW91613   7.487   2.892   2.510
29869SOL    HW191614   7.461   2.933   2.427
29869SOL    HW291615   7.566   2.939   2.536
29870SOL     OW91616   6.136   8.881   1.516
29870SOL    HW191617   6.209   8.943   1.520
29870SOL    HW291618   6.085   8.898   1.595
29871SOL     OW91619  10.441   5.710   8.522
29871SOL    HW191620  10.367   5.703   8.462
29871SOL    HW291621  10.451   5.804   8.537
29872SOL     OW91622   0.283   4.773   3.766
29872SOL    HW191623   0.354   4.780   3.829
29872SOL    HW291624   0.225   4.847   3.785
29873SOL     OW91625   5.130   0.937   7.865
29873SOL    HW191626   5.201   0.945   7.929
29873SOL    HW291627   5.122   1.024   7.827
29874SOL     OW91628   9.143   0.407   1.349
29874SOL    HW191629   9.229   0.437   1.320
29874SOL    HW291630   9.155   0.313   1.366
29875SOL     OW91631   0.019   3.563   3.473
29875SOL    HW191632   0.040   3.641   3.422
29875SOL    HW291633   0.071   3.493   3.432
29876SOL     OW91634   9.500   8.623   0.282
29876SOL    HW191635   9.482   8.649   0.192
29876SOL    HW291636   9.525   8.704   0.326
29877SOL     OW91637   1.825   2.571   8.192
29877SOL    HW191638   1.862   2.619   8.266
29877SOL    HW291639   1.899   2.521   8.156
29878SOL     OW91640   1.975   3.755   8.377
29878SOL    HW191641   1.901   3.739   8.318
29878SOL    HW291642   2.005   3.843   8.354
29879SOL     OW91643   7.068  10.039   8.897
29879SOL    HW191644   7.124  10.018   8.972
29879SOL    HW291645   7.129  10.065   8.828
29880SOL     OW91646   6.435   0.841   0.494
29880SOL    HW191647   6.434   0.935   0.511
29880SOL    HW291648   6.361   0.826   0.435
29881SOL     OW91649   9.950   0.417   9.412
29881SOL    HW191650   9.913   0.383   9.331
29881SOL    HW291651   9.874   0.444   9.464
29882SOL     OW91652   6.440   6.200  10.955
29882SOL    HW191653   6.405   6.231  10.871
29882SOL    HW291654   6.468   6.279  11.000
29883SOL     OW91655   5.824   1.657   5.092
29883SOL    HW191656   5.918   1.662   5.111
29883SOL    HW291657   5.819   1.646   4.997
29884SOL     OW91658   6.114   2.868  10.427
29884SOL    HW191659   6.199   2.874  10.383
29884SOL    HW291660   6.093   2.774  10.424
29885SOL     OW91661   6.986   4.186   7.891
29885SOL    HW191662   6.975   4.199   7.797
29885SOL    HW291663   6.957   4.096   7.906
29886SOL     OW91664   2.925   0.925   8.391
29886SOL    HW191665   2.961   0.992   8.449
29886SOL    HW291666   2.922   0.846   8.445
29887SOL     OW91667   4.978   0.296   5.292
29887SOL    HW191668   5.038   0.255   5.354
29887SOL    HW291669   4.995   0.389   5.300
29888SOL     OW91670   4.458   7.905   9.307
29888SOL    HW191671   4.537   7.957   9.293
29888SOL    HW291672   4.486   7.814   9.294
29889SOL     OW91673   5.978   0.998   5.047
29889SOL    HW191674   6.073   1.010   5.056
29889SOL    HW291675   5.964   0.905   5.065
29890SOL     OW91676   2.412   0.476   7.799
29890SOL    HW191677   2.409   0.473   7.894
29890SOL    HW291678   2.504   0.462   7.777
29891SOL     OW91679   7.747   6.073   4.486
29891SOL    HW191680   7.767   6.135   4.416
29891SOL    HW291681   7.680   6.016   4.448
29892SOL     OW91682   9.399   6.249   8.571
29892SOL    HW191683   9.315   6.238   8.616
29892SOL    HW291684   9.395   6.336   8.532
29893SOL     OW91685   3.810   5.230   0.102
29893SOL    HW191686   3.840   5.222   0.012
29893SOL    HW291687   3.888   5.212   0.155
29894SOL     OW91688   8.018  10.633   5.312
29894SOL    HW191689   7.932  10.620   5.271
29894SOL    HW291690   8.013  10.585   5.394
29895SOL     OW91691   2.641   1.478   7.551
29895SOL    HW191692   2.735   1.474   7.569
29895SOL    HW291693   2.636   1.503   7.459
29896SOL     OW91694  10.168   8.278   8.756
29896SOL    HW191695  10.237   8.290   8.690
29896SOL    HW291696  10.208   8.222   8.823
29897SOL     OW91697   7.664   3.285  10.939
29897SOL    HW191698   7.689   3.319  10.853
29897SOL    HW291699   7.702   3.197  10.942
29898SOL     OW91700   0.160   9.977   5.697
29898SOL    HW191701   0.207   9.927   5.630
29898SOL    HW291702   0.198   9.948   5.779
29899SOL     OW91703   7.865   7.425   1.875
29899SOL    HW191704   7.886   7.368   1.949
29899SOL    HW291705   7.835   7.365   1.806
29900SOL     OW91706  10.131   0.633   4.998
29900SOL    HW191707  10.099   0.707   4.946
29900SOL    HW291708  10.220   0.658   5.023
29901SOL     OW91709   7.395   3.453   1.165
29901SOL    HW191710   7.300   3.443   1.155
29901SOL    HW291711   7.430   3.438   1.077
29902SOL     OW91712   4.260   4.556   8.349
29902SOL    HW191713   4.192   4.565   8.416
29902SOL    HW291714   4.283   4.646   8.326
29903SOL     OW91715   5.400   1.776  10.155
29903SOL    HW191716   5.457   1.788  10.230
29903SOL    HW291717   5.460   1.770  10.080
29904SOL     OW91718   8.328   8.498   3.931
29904SOL    HW191719   8.414   8.537   3.944
29904SOL    HW291720   8.347   8.406   3.909
29905SOL     OW91721   8.878   9.591   7.145
29905SOL    HW191722   8.959   9.635   7.170
29905SOL    HW291723   8.850   9.636   7.065
29906SOL     OW91724   8.857   3.648   7.100
29906SOL    HW191725   8.931   3.593   7.126
29906SOL    HW291726   8.783   3.614   7.150
29907SOL     OW91727   6.473  10.492   7.854
29907SOL    HW191728   6.420  10.555   7.903
29907SOL    HW291729   6.551  10.478   7.908
29908SOL     OW91730   8.532   3.518   8.240
29908SOL    HW191731   8.600   3.540   8.303
29908SOL    HW291732   8.547   3.577   8.166
29909SOL     OW91733   7.484   8.935  10.073
29909SOL    HW191734   7.477   9.024  10.108
29909SOL    HW291735   7.567   8.935  10.024
29910SOL     OW91736   0.908  10.850   2.123
29910SOL    HW191737   0.861  10.783   2.074
29910SOL    HW291738   0.847  10.878   2.191
29911SOL     OW91739   6.649   6.824   0.269
29911SOL    HW191740   6.640   6.824   0.364
29911SOL    HW291741   6.731   6.871   0.253
29912SOL     OW91742  10.685   1.250   7.194
29912SOL    HW191743  10.733   1.257   7.276
29912SOL    HW291744  10.597   1.224   7.220
29913SOL     OW91745   1.008   6.032   9.203
29913SOL    HW191746   1.064   6.005   9.276
29913SOL    HW291747   1.031   6.123   9.187
29914SOL     OW91748   0.314   9.831   6.308
29914SOL    HW191749   0.238   9.845   6.252
29914SOL    HW291750   0.309   9.900   6.373
29915SOL     OW91751   0.154   8.891   3.760
29915SOL    HW191752   0.113   8.807   3.738
29915SOL    HW291753   0.108   8.920   3.839
29916SOL     OW91754   8.348   7.340   0.889
29916SOL    HW191755   8.369   7.333   0.796
29916SOL    HW291756   8.323   7.431   0.901
29917SOL     OW91757  10.507   7.343   1.128
29917SOL    HW191758  10.457   7.279   1.077
29917SOL    HW291759  10.476   7.331   1.218
29918SOL     OW91760   0.861   9.237   4.942
29918SOL    HW191761   0.843   9.279   4.857
29918SOL    HW291762   0.787   9.261   4.997
29919SOL     OW91763   6.288   7.052   5.792
29919SOL    HW191764   6.260   6.968   5.755
29919SOL    HW291765   6.289   7.111   5.717
29920SOL     OW91766  10.454   9.520   0.942
29920SOL    HW191767  10.506   9.448   0.979
29920SOL    HW291768  10.500   9.542   0.861
29921SOL     OW91769   4.305   1.674   8.737
29921SOL    HW191770   4.235   1.693   8.674
29921SOL    HW291771   4.347   1.758   8.753
29922SOL     OW91772   9.980   3.106   9.931
29922SOL    HW191773  10.003   3.181   9.985
29922SOL    HW291774  10.064   3.068   9.906
29923SOL     OW91775   1.295   0.861   9.911
29923SOL    HW191776   1.259   0.773   9.918
29923SOL    HW291777   1.248   0.912   9.976
29924SOL     OW91778   1.230   2.318   9.725
29924SOL    HW191779   1.305   2.260   9.712
29924SOL    HW291780   1.169   2.266   9.778
29925SOL     OW91781   4.398   1.878   8.987
29925SOL    HW191782   4.448   1.899   8.908
29925SOL    HW291783   4.446   1.921   9.057
29926SOL     OW91784   1.233   0.221   9.814
29926SOL    HW191785   1.231   0.127   9.833
29926SOL    HW291786   1.208   0.227   9.721
29927SOL     OW91787   3.630  10.419   4.404
29927SOL    HW191788   3.577  10.460   4.336
29927SOL    HW291789   3.708  10.388   4.357
29928SOL     OW91790   5.995   5.051   0.964
29928SOL    HW191791   5.976   5.021   1.053
29928SOL    HW291792   5.972   4.976   0.908
29929SOL     OW91793   9.039   9.199   1.664
29929SOL    HW191794   9.066   9.134   1.729
29929SOL    HW291795   9.120   9.245   1.641
29930SOL     OW91796   3.457   0.576   2.875
29930SOL    HW191797   3.398   0.546   2.806
29930SOL    HW291798   3.451   0.671   2.872
29931SOL     OW91799  10.043   3.896   7.757
29931SOL    HW191800  10.080   3.978   7.789
29931SOL    HW291801  10.076   3.829   7.817
29932SOL     OW91802   0.965   7.356   5.972
29932SOL    HW191803   0.956   7.394   6.059
29932SOL    HW291804   0.905   7.281   5.972
29933SOL     OW91805   2.430  11.078   7.042
29933SOL    HW191806   2.443  11.049   7.132
29933SOL    HW291807   2.338  11.104   7.038
29934SOL     OW91808   9.764   8.785   2.171
29934SOL    HW191809   9.809   8.766   2.089
29934SOL    HW291810   9.829   8.767   2.239
29935SOL     OW91811   3.806   9.885   3.527
29935SOL    HW191812   3.764   9.859   3.609
29935SOL    HW291813   3.889   9.925   3.554
29936SOL     OW91814   7.274   7.805   4.195
29936SOL    HW191815   7.352   7.850   4.163
29936SOL    HW291816   7.210   7.815   4.124
29937SOL     OW91817   6.653  10.991   6.003
29937SOL    HW191818   6.661  10.898   5.980
29937SOL    HW291819   6.656  10.992   6.098
29938SOL     OW91820   8.275   9.470   7.606
29938SOL    HW191821   8.308   9.461   7.516
29938SOL    HW291822   8.318   9.549   7.639
29939SOL     OW91823   9.089   8.155   0.695
29939SOL    HW191824   9.048   8.079   0.737
29939SOL    HW291825   9.047   8.160   0.609
29940SOL     OW91826   3.318   1.482   6.601
29940SOL    HW191827   3.365   1.400   6.585
29940SOL    HW291828   3.386   1.545   6.624
29941SOL     OW91829   1.076   9.776   6.807
29941SOL    HW191830   1.117   9.854   6.845
29941SOL    HW291831   1.149   9.725   6.772
29942SOL     OW91832   8.205   2.545   1.006
29942SOL    HW191833   8.201   2.517   1.097
29942SOL    HW291834   8.271   2.614   1.005
29943SOL     OW91835   8.914   2.636   5.339
29943SOL    HW191836   8.832   2.650   5.386
29943SOL    HW291837   8.977   2.610   5.406
29944SOL     OW91838  10.593  10.512   3.068
29944SOL    HW191839  10.625  10.535   2.981
29944SOL    HW291840  10.500  10.494   3.055
29945SOL     OW91841  10.452   6.383   4.758
29945SOL    HW191842  10.457   6.404   4.664
29945SOL    HW291843  10.417   6.294   4.761
29946SOL     OW91844   9.076   6.707   8.919
29946SOL    HW191845   9.110   6.714   9.008
29946SOL    HW291846   9.008   6.774   8.913
29947SOL     OW91847  10.977   9.022   4.628
29947SOL    HW191848  10.949   9.112   4.638
29947SOL    HW291849  10.898   8.970   4.641
29948SOL     OW91850   5.030   7.439   3.916
29948SOL    HW191851   5.007   7.424   4.007
29948SOL    HW291852   4.954   7.408   3.866
29949SOL     OW91853   9.773   1.248   4.829
29949SOL    HW191854   9.750   1.212   4.914
29949SOL    HW291855   9.834   1.319   4.848
29950SOL     OW91856   9.871   2.228   0.660
29950SOL    HW191857   9.904   2.200   0.574
29950SOL    HW291858   9.860   2.146   0.709
29951SOL     OW91859   1.983   4.835   1.621
29951SOL    HW191860   1.894   4.842   1.656
29951SOL    HW291861   2.026   4.916   1.648
29952SOL     OW91862   9.789  10.043   7.181
29952SOL    HW191863   9.745  10.091   7.111
29952SOL    HW291864   9.765  10.089   7.261
29953SOL     OW91865   7.675   8.499   5.397
29953SOL    HW191866   7.665   8.524   5.305
29953SOL    HW291867   7.700   8.406   5.394
29954SOL     OW91868   7.738   0.010  10.819
29954SOL    HW191869   7.739  -0.068  10.875
29954SOL    HW291870   7.831   0.028  10.803
29955SOL     OW91871   2.009   4.861   4.948
29955SOL    HW191872   2.029   4.935   5.005
29955SOL    HW291873   2.009   4.785   5.006
29956SOL     OW91874   7.200   0.539   1.753
29956SOL    HW191875   7.259   0.505   1.686
29956SOL    HW291876   7.253   0.601   1.803
29957SOL     OW91877   0.826  10.435   1.776
29957SOL    HW191878   0.911  10.400   1.803
29957SOL    HW291879   0.837  10.530   1.780
29958SOL     OW91880   6.754   5.442   6.973
29958SOL    HW191881   6.778   5.478   6.887
29958SOL    HW291882   6.663   5.414   6.962
29959SOL     OW91883   8.960   3.828  10.332
29959SOL    HW191884   9.004   3.792  10.254
29959SOL    HW291885   8.977   3.763  10.401
29960SOL     OW91886   7.965   4.384   1.008
29960SOL    HW191887   8.031   4.336   1.059
29960SOL    HW291888   7.946   4.326   0.934
29961SOL     OW91889   9.455   3.917   7.694
29961SOL    HW191890   9.468   3.822   7.687
29961SOL    HW291891   9.406   3.939   7.615
29962SOL     OW91892   7.794   1.803   9.461
29962SOL    HW191893   7.773   1.709   9.466
29962SOL    HW291894   7.821   1.817   9.370
29963SOL     OW91895   9.509   2.097   1.540
29963SOL    HW191896   9.452   2.093   1.463
29963SOL    HW291897   9.551   2.011   1.543
29964SOL     OW91898  10.816   1.494   7.373
29964SOL    HW191899  10.818   1.521   7.464
29964SOL    HW291900  10.780   1.569   7.326
29965SOL     OW91901   9.707   1.731   9.811
29965SOL    HW191902   9.735   1.659   9.754
29965SOL    HW291903   9.739   1.809   9.766
29966SOL     OW91904   8.547  10.779   4.307
29966SOL    HW191905   8.561  10.776   4.401
29966SOL    HW291906   8.548  10.872   4.285
29967SOL     OW91907   0.505   1.674   5.314
29967SOL    HW191908   0.420   1.676   5.358
29967SOL    HW291909   0.559   1.616   5.368
29968SOL     OW91910   6.014  10.101   3.388
29968SOL    HW191911   6.061  10.176   3.351
29968SOL    HW291912   6.042  10.026   3.334
29969SOL     OW91913   6.460   2.076   6.064
29969SOL    HW191914   6.476   2.012   6.133
29969SOL    HW291915   6.403   2.141   6.104
29970SOL     OW91916   8.980   3.559   3.732
29970SOL    HW191917   9.075   3.549   3.742
29970SOL    HW291918   8.946   3.560   3.821
29971SOL     OW91919   1.966   0.923   6.147
29971SOL    HW191920   1.932   0.971   6.071
29971SOL    HW291921   1.973   0.832   6.116
29972SOL     OW91922  10.055   7.160   7.722
29972SOL    HW191923   9.991   7.097   7.756
29972SOL    HW291924  10.135   7.108   7.710
29973SOL     OW91925   6.439   1.332   2.251
29973SOL    HW191926   6.351   1.309   2.282
29973SOL    HW291927   6.454   1.273   2.177
29974SOL     OW91928   1.481  10.083   7.172
29974SOL    HW191929   1.386  10.086   7.172
29974SOL    HW291930   1.504  10.031   7.249
29975SOL     OW91931   0.813   1.144   0.217
29975SOL    HW191932   0.722   1.170   0.206
29975SOL    HW291933   0.848   1.205   0.282
29976SOL     OW91934   4.406   1.955   9.325
29976SOL    HW191935   4.316   1.980   9.305
29976SOL    HW291936   4.422   1.990   9.412
29977SOL     OW91937  10.709   9.365   7.669
29977SOL    HW191938  10.801   9.380   7.692
29977SOL    HW291939  10.692   9.425   7.596
29978SOL     OW91940  10.376   3.175  11.031
29978SOL    HW191941  10.362   3.262  10.994
29978SOL    HW291942  10.379   3.117  10.955
29979SOL     OW91943   9.552   5.080   6.635
29979SOL    HW191944   9.568   5.137   6.709
29979SOL    HW291945   9.633   5.030   6.626
29980SOL     OW91946   3.819   0.321   8.150
29980SOL    HW191947   3.811   0.226   8.163
29980SOL    HW291948   3.883   0.349   8.215
29981SOL     OW91949  10.966   7.181   9.345
29981SOL    HW191950  10.888   7.125   9.341
29981SOL    HW291951  11.017   7.146   9.418
29982SOL     OW91952   9.042   1.469   1.618
29982SOL    HW191953   8.985   1.474   1.541
29982SOL    HW291954   9.128   1.497   1.585
29983SOL     OW91955   9.213   3.924   5.961
29983SOL    HW191956   9.274   3.857   5.929
29983SOL    HW291957   9.147   3.931   5.892
29984SOL     OW91958   9.940  10.675   0.873
29984SOL    HW191959   9.880  10.603   0.854
29984SOL    HW291960   9.897  10.724   0.943
29985SOL     OW91961   7.855   7.311   7.507
29985SOL    HW191962   7.939   7.265   7.500
29985SOL    HW291963   7.817   7.304   7.419
29986SOL     OW91964   2.971   7.401   8.582
29986SOL    HW191965   3.030   7.366   8.649
29986SOL    HW291966   2.967   7.331   8.516
29987SOL     OW91967  10.892   3.583   8.485
29987SOL    HW191968  10.980   3.557   8.513
29987SOL    HW291969  10.884   3.674   8.514
29988SOL     OW91970   0.575   2.049   3.944
29988SOL    HW191971   0.542   2.138   3.957
29988SOL    HW291972   0.506   1.992   3.979
29989SOL     OW91973   6.508  10.452   7.317
29989SOL    HW191974   6.521  10.357   7.323
29989SOL    HW291975   6.465  10.476   7.399
29990SOL     OW91976   0.595   6.586   8.063
29990SOL    HW191977   0.671   6.623   8.017
29990SOL    HW291978   0.601   6.621   8.152
29991SOL     OW91979   5.568  10.849   4.966
29991SOL    HW191980   5.543  10.933   5.005
29991SOL    HW291981   5.620  10.873   4.889
29992SOL     OW91982   1.051   3.328   2.202
29992SOL    HW191983   0.982   3.287   2.254
29992SOL    HW291984   1.115   3.358   2.266
29993SOL     OW91985  11.041  10.034   1.418
29993SOL    HW191986  11.035   9.970   1.489
29993SOL    HW291987  11.030  10.118   1.461
29994SOL     OW91988   0.678   3.340   6.338
29994SOL    HW191989   0.617   3.406   6.370
29994SOL    HW291990   0.689   3.361   6.245
29995SOL     OW91991   8.389   7.499   6.301
29995SOL    HW191992   8.375   7.532   6.389
29995SOL    HW291993   8.474   7.535   6.275
29996SOL     OW91994   2.698   4.175  10.998
29996SOL    HW191995   2.752   4.240  11.042
29996SOL    HW291996   2.631   4.226  10.952
29997SOL     OW91997   4.943   0.781   1.104
29997SOL    HW191998   5.032   0.755   1.128
29997SOL    HW291999   4.954   0.862   1.054
29998SOL     OW92000   7.762   4.283   6.126
29998SOL    HW192001   7.768   4.369   6.085
29998SOL    HW292002   7.681   4.245   6.092
29999SOL     OW92003   6.488   1.038   9.074
29999SOL    HW192004   6.471   0.948   9.103
29999SOL    HW292005   6.563   1.067   9.126
30000SOL     OW92006   8.378   7.431  10.110
30000SOL    HW192007   8.378   7.339  10.137
30000SOL    HW292008   8.291   7.444  10.072
30001SOL     OW92009   9.354   8.881   8.799
30001SOL    HW192010   9.347   8.944   8.728
30001SOL    HW292011   9.358   8.934   8.878
30002SOL     OW92012   6.661   0.730   6.821
30002SOL    HW192013   6.742   0.780   6.812
30002SOL    HW292014   6.596   0.780   6.772
30003SOL     OW92015   0.528  10.561   6.817
30003SOL    HW192016   0.598  10.508   6.778
30003SOL    HW292017   0.562  10.587   6.902
30004SOL     OW92018   4.446   4.360   2.259
30004SOL    HW192019   4.358   4.389   2.280
30004SOL    HW292020   4.468   4.406   2.178
30005SOL     OW92021   5.227   8.738   8.544
30005SOL    HW192022   5.209   8.779   8.459
30005SOL    HW292023   5.267   8.807   8.596
30006SOL     OW92024   9.660   1.699   9.111
30006SOL    HW192025   9.714   1.701   9.190
30006SOL    HW292026   9.697   1.628   9.058
30007SOL     OW92027   2.895   2.021   5.475
30007SOL    HW192028   2.802   2.043   5.473
30007SOL    HW292029   2.899   1.937   5.521
30008SOL     OW92030  10.951   6.612   5.125
30008SOL    HW192031  11.032   6.563   5.136
30008SOL    HW292032  10.894   6.580   5.195
30009SOL     OW92033   5.154  10.248   6.327
30009SOL    HW192034   5.067  10.245   6.288
30009SOL    HW292035   5.153  10.179   6.393
30010SOL     OW92036   1.236   5.833   6.753
30010SOL    HW192037   1.265   5.855   6.841
30010SOL    HW292038   1.315   5.802   6.709
30011SOL     OW92039   6.998   0.582   2.903
30011SOL    HW192040   6.957   0.511   2.953
30011SOL    HW292041   7.016   0.650   2.968
30012SOL     OW92042   9.867   5.003  10.425
30012SOL    HW192043   9.950   4.985  10.468
30012SOL    HW292044   9.801   4.991  10.493
30013SOL     OW92045  11.036  10.890  10.735
30013SOL    HW192046  11.004  10.974  10.701
30013SOL    HW292047  10.968  10.862  10.796
30014SOL     OW92048   5.186   7.247   7.065
30014SOL    HW192049   5.196   7.256   6.970
30014SOL    HW292050   5.151   7.158   7.076
30015SOL     OW92051   5.698   6.611   7.726
30015SOL    HW192052   5.647   6.668   7.783
30015SOL    HW292053   5.648   6.608   7.644
30016SOL     OW92054   3.977   3.359   6.346
30016SOL    HW192055   3.893   3.403   6.338
30016SOL    HW292056   3.956   3.266   6.337
30017SOL     OW92057   1.379   2.319   7.928
30017SOL    HW192058   1.466   2.279   7.934
30017SOL    HW292059   1.395   2.412   7.941
30018SOL     OW92060   3.227   8.765   3.152
30018SOL    HW192061   3.280   8.788   3.076
30018SOL    HW292062   3.188   8.680   3.128
30019SOL     OW92063   6.663   6.289   1.281
30019SOL    HW192064   6.594   6.292   1.214
30019SOL    HW292065   6.703   6.376   1.278
30020SOL     OW92066   4.953   2.300   1.166
30020SOL    HW192067   4.932   2.391   1.147
30020SOL    HW292068   4.995   2.268   1.086
30021SOL     OW92069   3.605   5.402   8.305
30021SOL    HW192070   3.672   5.427   8.369
30021SOL    HW292071   3.541   5.352   8.355
30022SOL     OW92072   1.316   2.718  10.604
30022SOL    HW192073   1.335   2.681  10.517
30022SOL    HW292074   1.221   2.728  10.605
30023SOL     OW92075   0.207   6.581   7.099
30023SOL    HW192076   0.263   6.575   7.022
30023SOL    HW292077   0.140   6.645   7.075
30024SOL     OW92078   8.403   0.071   3.744
30024SOL    HW192079   8.494   0.082   3.717
30024SOL    HW292080   8.407   0.008   3.816
30025SOL     OW92081   8.245   4.729   9.650
30025SOL    HW192082   8.243   4.726   9.745
30025SOL    HW292083   8.337   4.742   9.628
30026SOL     OW92084   5.692   3.921   9.951
30026SOL    HW192085   5.611   3.901   9.904
30026SOL    HW292086   5.739   3.837   9.953
30027SOL     OW92087   7.716   5.069   8.836
30027SOL    HW192088   7.702   5.163   8.827
30027SOL    HW292089   7.670   5.031   8.761
30028SOL     OW92090   6.420   2.206  10.252
30028SOL    HW192091   6.366   2.198  10.330
30028SOL    HW292092   6.500   2.158  10.273
30029SOL     OW92093   8.860   2.067   8.671
30029SOL    HW192094   8.801   2.141   8.685
30029SOL    HW292095   8.833   2.030   8.586
30030SOL     OW92096   2.296  10.624   0.889
30030SOL    HW192097   2.232  10.695   0.894
30030SOL    HW292098   2.338  10.623   0.975
30031SOL     OW92099   8.300   8.886   9.139
30031SOL    HW192100   8.239   8.928   9.078
30031SOL    HW292101   8.385   8.926   9.119
30032SOL     OW92102   9.689   8.805   4.905
30032SOL    HW192103   9.732   8.887   4.927
30032SOL    HW292104   9.596   8.824   4.911
30033SOL     OW92105   7.226   0.465   1.149
30033SOL    HW192106   7.287   0.409   1.197
30033SOL    HW292107   7.252   0.456   1.057
30034SOL     OW92108   8.531  10.651   1.456
30034SOL    HW192109   8.455  10.597   1.478
30034SOL    HW292110   8.527  10.659   1.360
30035SOL     OW92111   9.706   9.785   9.898
30035SOL    HW192112   9.613   9.789   9.919
30035SOL    HW292113   9.710   9.733   9.818
30036SOL     OW92114   8.157   0.723  10.996
30036SOL    HW192115   8.062   0.718  11.009
30036SOL    HW292116   8.168   0.784  10.923
30037SOL     OW92117  10.461   9.587   6.826
30037SOL    HW192118  10.449   9.679   6.802
30037SOL    HW292119  10.386   9.567   6.881
30038SOL     OW92120   9.327   3.535   4.447
30038SOL    HW192121   9.275   3.528   4.526
30038SOL    HW292122   9.279   3.484   4.382
30039SOL     OW92123   0.345   8.340   8.089
30039SOL    HW192124   0.392   8.307   8.012
30039SOL    HW292125   0.346   8.435   8.079
30040SOL     OW92126   3.063   6.052   1.903
30040SOL    HW192127   3.148   6.013   1.881
30040SOL    HW292128   3.050   6.119   1.836
30041SOL     OW92129  10.582   1.414  11.026
30041SOL    HW192130  10.504   1.359  11.025
30041SOL    HW292131  10.650   1.358  10.988
30042SOL     OW92132   9.292   1.582   5.350
30042SOL    HW192133   9.337   1.509   5.307
30042SOL    HW292134   9.259   1.545   5.432
30043SOL     OW92135   1.096   1.812   8.256
30043SOL    HW192136   1.177   1.861   8.241
30043SOL    HW292137   1.071   1.834   8.345
30044SOL     OW92138   8.641   7.208   6.764
30044SOL    HW192139   8.632   7.301   6.746
30044SOL    HW292140   8.681   7.172   6.684
30045SOL     OW92141   3.755   1.176   9.068
30045SOL    HW192142   3.818   1.215   9.128
30045SOL    HW292143   3.688   1.243   9.056
30046SOL     OW92144   1.018   9.728   9.160
30046SOL    HW192145   1.045   9.797   9.219
30046SOL    HW292146   0.991   9.773   9.080
30047SOL     OW92147   8.909   2.766   0.781
30047SOL    HW192148   8.981   2.823   0.754
30047SOL    HW292149   8.890   2.792   0.871
30048SOL     OW92150   0.384   3.068   0.718
30048SOL    HW192151   0.435   3.102   0.644
30048SOL    HW292152   0.306   3.030   0.677
30049SOL     OW92153   5.515   8.821   5.445
30049SOL    HW192154   5.487   8.732   5.423
30049SOL    HW292155   5.520   8.822   5.540
30050SOL     OW92156   4.615   8.712   6.615
30050SOL    HW192157   4.560   8.790   6.609
30050SOL    HW292158   4.566   8.644   6.568
30051SOL     OW92159   4.365   4.132   1.937
30051SOL    HW192160   4.317   4.201   1.982
30051SOL    HW292161   4.442   4.117   1.991
30052SOL     OW92162  11.058   0.524   4.244
30052SOL    HW192163  11.085   0.513   4.335
30052SOL    HW292164  10.990   0.591   4.246
30053SOL     OW92165   9.181   5.384   0.219
30053SOL    HW192166   9.151   5.408   0.131
30053SOL    HW292167   9.202   5.467   0.261
30054SOL     OW92168   2.598   0.785   1.732
30054SOL    HW192169   2.511   0.809   1.763
30054SOL    HW292170   2.583   0.746   1.646
30055SOL     OW92171   2.344   4.815   0.722
30055SOL    HW192172   2.285   4.762   0.668
30055SOL    HW292173   2.285   4.867   0.777
30056SOL     OW92174   0.944  10.200  10.693
30056SOL    HW192175   0.957  10.294  10.684
30056SOL    HW292176   1.016  10.171  10.749
30057SOL     OW92177   8.837   1.970   1.788
30057SOL    HW192178   8.927   1.976   1.820
30057SOL    HW292179   8.828   1.879   1.760
30058SOL     OW92180   5.622   8.078   9.698
30058SOL    HW192181   5.698   8.106   9.749
30058SOL    HW292182   5.604   8.151   9.638
30059SOL     OW92183  10.666  10.534   2.146
30059SOL    HW192184  10.699  10.624   2.144
30059SOL    HW292185  10.744  10.479   2.153
30060SOL     OW92186   4.501   0.271   0.551
30060SOL    HW192187   4.515   0.195   0.494
30060SOL    HW292188   4.499   0.345   0.491
30061SOL     OW92189  10.173  10.318   1.777
30061SOL    HW192190  10.084  10.308   1.742
30061SOL    HW292191  10.229  10.282   1.708
30062SOL     OW92192  10.722  10.008   7.275
30062SOL    HW192193  10.630  10.033   7.272
30062SOL    HW292194  10.723   9.928   7.328
30063SOL     OW92195  10.767   2.396   6.754
30063SOL    HW192196  10.809   2.379   6.838
30063SOL    HW292197  10.674   2.405   6.775
30064SOL     OW92198   1.097   8.168   0.215
30064SOL    HW192199   1.018   8.188   0.264
30064SOL    HW292200   1.168   8.176   0.278
30065SOL     OW92201   8.377   8.099   5.392
30065SOL    HW192202   8.466   8.075   5.366
30065SOL    HW292203   8.323   8.072   5.317
30066SOL     OW92204   3.555   4.989   1.928
30066SOL    HW192205   3.586   5.073   1.962
30066SOL    HW292206   3.462   5.003   1.912
30067SOL     OW92207   4.167   6.237   0.154
30067SOL    HW192208   4.197   6.317   0.197
30067SOL    HW292209   4.133   6.183   0.225
30068SOL     OW92210   3.862   2.858   9.559
30068SOL    HW192211   3.929   2.797   9.528
30068SOL    HW292212   3.779   2.812   9.543
30069SOL     OW92213   9.215   9.305   1.407
30069SOL    HW192214   9.310   9.308   1.393
30069SOL    HW292215   9.178   9.341   1.326
30070SOL     OW92216   8.722   2.329  10.077
30070SOL    HW192217   8.792   2.371  10.027
30070SOL    HW292218   8.718   2.378  10.159
30071SOL     OW92219   9.006   0.306   2.082
30071SOL    HW192220   9.046   0.235   2.132
30071SOL    HW292221   8.939   0.263   2.028
30072SOL     OW92222  10.900   5.922   9.036
30072SOL    HW192223  10.911   5.875   8.953
30072SOL    HW292224  10.817   5.968   9.027
30073SOL     OW92225   8.116   9.748   3.952
30073SOL    HW192226   8.071   9.832   3.944
30073SOL    HW292227   8.072   9.704   4.025
30074SOL     OW92228   7.187   4.509   7.144
30074SOL    HW192229   7.195   4.602   7.125
30074SOL    HW292230   7.093   4.495   7.155
30075SOL     OW92231   4.688   2.060   6.558
30075SOL    HW192232   4.645   2.118   6.620
30075SOL    HW292233   4.642   1.976   6.568
30076SOL     OW92234   6.767   0.450   9.036
30076SOL    HW192235   6.785   0.522   9.096
30076SOL    HW292236   6.853   0.427   8.999
30077SOL     OW92237   2.594   5.093   9.549
30077SOL    HW192238   2.608   5.147   9.627
30077SOL    HW292239   2.665   5.028   9.552
30078SOL     OW92240   1.605   1.746  11.067
30078SOL    HW192241   1.590   1.795  11.147
30078SOL    HW292242   1.544   1.673  11.071
30079SOL     OW92243   3.443   5.775   8.940
30079SOL    HW192244   3.416   5.685   8.961
30079SOL    HW292245   3.363   5.827   8.946
30080SOL     OW92246   9.220   3.224   3.258
30080SOL    HW192247   9.303   3.183   3.283
30080SOL    HW292248   9.205   3.291   3.325
30081SOL     OW92249   2.897   2.818   9.721
30081SOL    HW192250   2.818   2.844   9.674
30081SOL    HW292251   2.957   2.789   9.652
30082SOL     OW92252   9.836   0.892   4.373
30082SOL    HW192253   9.928   0.912   4.354
30082SOL    HW292254   9.830   0.797   4.365
30083SOL     OW92255   7.151   4.907   7.997
30083SOL    HW192256   7.177   4.997   8.014
30083SOL    HW292257   7.090   4.913   7.923
30084SOL     OW92258  10.740   0.396   0.607
30084SOL    HW192259  10.692   0.396   0.524
30084SOL    HW292260  10.825   0.357   0.586
30085SOL     OW92261   9.685   9.303  10.781
30085SOL    HW192262   9.762   9.262  10.741
30085SOL    HW292263   9.714   9.391  10.803
30086SOL     OW92264   5.480   0.893  10.802
30086SOL    HW192265   5.441   0.975  10.773
30086SOL    HW292266   5.524   0.859  10.724
30087SOL     OW92267   5.945   7.632  10.658
30087SOL    HW192268   5.997   7.671  10.588
30087SOL    HW292269   5.884   7.700  10.684
30088SOL     OW92270   8.735   2.867  10.642
30088SOL    HW192271   8.802   2.922  10.682
30088SOL    HW292272   8.683   2.927  10.588
30089SOL     OW92273   7.103   1.079   3.151
30089SOL    HW192274   7.171   1.113   3.209
30089SOL    HW292275   7.051   1.155   3.127
30090SOL     OW92276   7.273   7.710   2.121
30090SOL    HW192277   7.320   7.636   2.081
30090SOL    HW292278   7.204   7.730   2.058
30091SOL     OW92279   4.773   3.830   9.303
30091SOL    HW192280   4.845   3.892   9.291
30091SOL    HW292281   4.700   3.868   9.254
30092SOL     OW92282   7.091   0.699  10.469
30092SOL    HW192283   7.118   0.637  10.537
30092SOL    HW292284   7.170   0.749  10.450
30093SOL     OW92285   2.823   6.776   2.797
30093SOL    HW192286   2.778   6.829   2.863
30093SOL    HW292287   2.908   6.819   2.786
30094SOL     OW92288   3.244   8.993   8.302
30094SOL    HW192289   3.186   8.966   8.231
30094SOL    HW292290   3.199   8.964   8.381
30095SOL     OW92291  10.203   5.099   0.862
30095SOL    HW192292  10.176   5.178   0.908
30095SOL    HW292293  10.270   5.060   0.918
30096SOL     OW92294   1.926   7.421   8.559
30096SOL    HW192295   2.012   7.408   8.598
30096SOL    HW292296   1.866   7.377   8.618
30097SOL     OW92297   8.879   4.248   0.897
30097SOL    HW192298   8.902   4.188   0.968
30097SOL    HW292299   8.890   4.196   0.817
30098SOL     OW92300   8.988   7.780   6.166
30098SOL    HW192301   9.062   7.836   6.189
30098SOL    HW292302   8.975   7.794   6.072
30099SOL     OW92303   8.350   5.002   0.678
30099SOL    HW192304   8.301   5.045   0.748
30099SOL    HW292305   8.285   4.948   0.632
30100SOL     OW92306   1.298   7.198   7.323
30100SOL    HW192307   1.210   7.167   7.343
30100SOL    HW292308   1.334   7.131   7.265
30101SOL     OW92309   0.795   1.070   6.280
30101SOL    HW192310   0.727   1.020   6.326
30101SOL    HW292311   0.825   1.010   6.211
30102SOL     OW92312   8.537   1.019   4.380
30102SOL    HW192313   8.548   0.930   4.345
30102SOL    HW292314   8.442   1.029   4.390
30103SOL     OW92315  11.062   2.849   1.210
30103SOL    HW192316  11.117   2.778   1.177
30103SOL    HW292317  11.037   2.821   1.298
30104SOL     OW92318   9.546   6.942   8.001
30104SOL    HW192319   9.516   7.025   7.964
30104SOL    HW292320   9.619   6.966   8.058
30105SOL     OW92321   0.128   1.864   3.429
30105SOL    HW192322   0.165   1.910   3.504
30105SOL    HW292323   0.083   1.932   3.379
30106SOL     OW92324   9.200   7.580  10.619
30106SOL    HW192325   9.286   7.619  10.637
30106SOL    HW292326   9.205   7.554  10.527
30107SOL     OW92327  10.751  10.013   8.991
30107SOL    HW192328  10.764   9.931   8.942
30107SOL    HW292329  10.831  10.023   9.042
30108SOL     OW92330   3.010   8.230   9.637
30108SOL    HW192331   2.970   8.147   9.610
30108SOL    HW292332   2.971   8.295   9.578
30109SOL     OW92333   6.269  10.451   2.854
30109SOL    HW192334   6.291  10.385   2.788
30109SOL    HW292335   6.243  10.528   2.803
30110SOL     OW92336   9.898   2.284   5.635
30110SOL    HW192337   9.843   2.212   5.605
30110SOL    HW292338   9.857   2.362   5.599
30111SOL     OW92339   8.317   9.360   0.480
30111SOL    HW192340   8.395   9.404   0.513
30111SOL    HW292341   8.276   9.321   0.557
30112SOL     OW92342   7.725   9.055   0.361
30112SOL    HW192343   7.630   9.051   0.372
30112SOL    HW292344   7.760   9.039   0.448
30113SOL     OW92345   8.271   9.378   5.301
30113SOL    HW192346   8.217   9.303   5.326
30113SOL    HW292347   8.271   9.435   5.377
30114SOL     OW92348   2.324   5.158   5.490
30114SOL    HW192349   2.308   5.169   5.583
30114SOL    HW292350   2.419   5.149   5.483
30115SOL     OW92351   2.972   3.227   1.094
30115SOL    HW192352   3.031   3.225   1.169
30115SOL    HW292353   3.023   3.189   1.022
30116SOL     OW92354   3.280   1.981   1.965
30116SOL    HW192355   3.288   2.071   1.996
30116SOL    HW292356   3.368   1.958   1.934
30117SOL     OW92357   4.147   6.572   3.179
30117SOL    HW192358   4.067   6.617   3.151
30117SOL    HW292359   4.120   6.519   3.254
30118SOL     OW92360   0.230  10.096   7.738
30118SOL    HW192361   0.171  10.074   7.810
30118SOL    HW292362   0.173  10.138   7.673
30119SOL     OW92363   5.488   1.898   5.227
30119SOL    HW192364   5.465   1.819   5.276
30119SOL    HW292365   5.446   1.969   5.275
30120SOL     OW92366   1.842   2.851   1.917
30120SOL    HW192367   1.765   2.891   1.956
30120SOL    HW292368   1.913   2.868   1.979
30121SOL     OW92369   7.484   2.021   8.910
30121SOL    HW192370   7.559   2.040   8.966
30121SOL    HW292371   7.519   2.028   8.821
30122SOL     OW92372   8.641   7.438  11.100
30122SOL    HW192373   8.721   7.412  11.054
30122SOL    HW292374   8.579   7.458  11.029
30123SOL     OW92375   5.026   4.501   9.125
30123SOL    HW192376   4.989   4.573   9.074
30123SOL    HW292377   4.952   4.464   9.173
30124SOL     OW92378   2.323   2.695   5.583
30124SOL    HW192379   2.304   2.779   5.624
30124SOL    HW292380   2.307   2.709   5.489
30125SOL     OW92381   8.124   9.875  10.803
30125SOL    HW192382   8.205   9.837  10.839
30125SOL    HW292383   8.101   9.945  10.864
30126SOL     OW92384  10.566  10.184   8.874
30126SOL    HW192385  10.647  10.133   8.881
30126SOL    HW292386  10.497  10.117   8.872
30127SOL     OW92387   9.430   1.419   6.728
30127SOL    HW192388   9.350   1.400   6.777
30127SOL    HW292389   9.484   1.470   6.788
30128SOL     OW92390   0.243   4.712   6.599
30128SOL    HW192391   0.165   4.704   6.543
30128SOL    HW292392   0.315   4.728   6.538
30129SOL     OW92393   1.696   0.628   3.880
30129SOL    HW192394   1.768   0.652   3.822
30129SOL    HW292395   1.617   0.648   3.829
30130SOL     OW92396   5.648  10.601   1.733
30130SOL    HW192397   5.642  10.600   1.828
30130SOL    HW292398   5.607  10.684   1.707
30131SOL     OW92399   0.572   8.368   7.160
30131SOL    HW192400   0.518   8.356   7.238
30131SOL    HW292401   0.587   8.279   7.128
30132SOL     OW92402   9.765  10.028   6.038
30132SOL    HW192403   9.820   9.950   6.049
30132SOL    HW292404   9.714  10.033   6.119
30133SOL     OW92405   9.885   6.395   3.632
30133SOL    HW192406   9.972   6.428   3.609
30133SOL    HW292407   9.835   6.472   3.657
30134SOL     OW92408   1.393   8.430   7.220
30134SOL    HW192409   1.443   8.382   7.286
30134SOL    HW292410   1.302   8.412   7.241
30135SOL     OW92411   3.517   3.207   7.583
30135SOL    HW192412   3.521   3.279   7.645
30135SOL    HW292413   3.483   3.133   7.633
30136SOL     OW92414   6.100   9.565   4.945
30136SOL    HW192415   6.007   9.549   4.929
30136SOL    HW292416   6.102   9.647   4.994
30137SOL     OW92417   9.920   0.175   8.507
30137SOL    HW192418   9.981   0.225   8.560
30137SOL    HW292419   9.835   0.189   8.548
30138SOL     OW92420   7.114   7.364   0.014
30138SOL    HW192421   7.033   7.392   0.057
30138SOL    HW292422   7.181   7.422   0.049
30139SOL     OW92423  10.179   3.964   9.545
30139SOL    HW192424  10.099   3.948   9.494
30139SOL    HW292425  10.234   3.887   9.528
30140SOL     OW92426   1.146  10.826   3.260
30140SOL    HW192427   1.143  10.881   3.182
30140SOL    HW292428   1.185  10.744   3.230
30141SOL     OW92429   2.837   2.364   2.797
30141SOL    HW192430   2.751   2.406   2.794
30141SOL    HW292431   2.829   2.289   2.738
30142SOL     OW92432   0.850   8.017   9.099
30142SOL    HW192433   0.911   7.995   9.028
30142SOL    HW292434   0.861   7.946   9.163
30143SOL     OW92435   6.338   8.813   7.307
30143SOL    HW192436   6.301   8.861   7.233
30143SOL    HW292437   6.433   8.820   7.295
30144SOL     OW92438   9.176   2.599   9.179
30144SOL    HW192439   9.107   2.559   9.232
30144SOL    HW292440   9.252   2.542   9.192
30145SOL     OW92441   2.727   9.531  10.502
30145SOL    HW192442   2.815   9.545  10.467
30145SOL    HW292443   2.672   9.592  10.453
30146SOL     OW92444   7.203  10.977   1.621
30146SOL    HW192445   7.175  11.045   1.682
30146SOL    HW292446   7.135  10.975   1.554
30147SOL     OW92447   5.467   0.296   5.901
30147SOL    HW192448   5.430   0.227   5.956
30147SOL    HW292449   5.420   0.288   5.818
30148SOL     OW92450   9.043   3.563   0.603
30148SOL    HW192451   9.119   3.618   0.622
30148SOL    HW292452   9.035   3.506   0.679
30149SOL     OW92453   7.343   0.021   0.402
30149SOL    HW192454   7.344   0.116   0.410
30149SOL    HW292455   7.434  -0.006   0.419
30150SOL     OW92456   9.637   3.346   0.008
30150SOL    HW192457   9.706   3.412   0.003
30150SOL    HW292458   9.582   3.374   0.082
30151SOL     OW92459   6.764   1.244   8.846
30151SOL    HW192460   6.817   1.292   8.782
30151SOL    HW292461   6.825   1.224   8.917
30152SOL     OW92462   9.298   9.862   3.855
30152SOL    HW192463   9.240   9.795   3.892
30152SOL    HW292464   9.357   9.813   3.798
30153SOL     OW92465   7.198   2.437   1.699
30153SOL    HW192466   7.136   2.428   1.771
30153SOL    HW292467   7.269   2.490   1.734
30154SOL     OW92468   0.971   1.463   9.013
30154SOL    HW192469   0.983   1.552   9.045
30154SOL    HW292470   1.008   1.464   8.924
30155SOL     OW92471   4.290   8.546   1.177
30155SOL    HW192472   4.196   8.534   1.192
30155SOL    HW292473   4.296   8.629   1.130
30156SOL     OW92474   3.798   1.873   4.634
30156SOL    HW192475   3.814   1.797   4.578
30156SOL    HW292476   3.707   1.863   4.662
30157SOL     OW92477   0.214  11.001   9.217
30157SOL    HW192478   0.188  10.917   9.178
30157SOL    HW292479   0.154  11.065   9.178
30158SOL     OW92480   2.435   2.350   7.808
30158SOL    HW192481   2.364   2.381   7.752
30158SOL    HW292482   2.416   2.386   7.894
30159SOL     OW92483   4.210   1.737   3.463
30159SOL    HW192484   4.205   1.820   3.416
30159SOL    HW292485   4.290   1.696   3.431
30160SOL     OW92486   3.929  10.853   0.538
30160SOL    HW192487   3.853  10.795   0.542
30160SOL    HW292488   3.950  10.859   0.444
30161SOL     OW92489   6.787   8.271   4.988
30161SOL    HW192490   6.769   8.183   4.953
30161SOL    HW292491   6.809   8.256   5.080
30162SOL     OW92492  10.439   1.337  10.394
30162SOL    HW192493  10.411   1.260  10.444
30162SOL    HW292494  10.365   1.357  10.337
30163SOL     OW92495   5.805   3.050   7.229
30163SOL    HW192496   5.759   3.040   7.312
30163SOL    HW292497   5.761   3.122   7.184
30164SOL     OW92498  11.022   1.606   2.366
30164SOL    HW192499  11.091   1.654   2.411
30164SOL    HW292500  10.989   1.667   2.300
30165SOL     OW92501   9.150   2.824   8.042
30165SOL    HW192502   9.224   2.850   7.986
30165SOL    HW292503   9.108   2.752   7.994
30166SOL     OW92504   6.872   3.433   1.673
30166SOL    HW192505   6.908   3.433   1.584
30166SOL    HW292506   6.812   3.358   1.674
30167SOL     OW92507   0.990   1.778   2.311
30167SOL    HW192508   1.049   1.735   2.373
30167SOL    HW292509   0.980   1.867   2.345
30168SOL     OW92510   8.935   8.422   2.985
30168SOL    HW192511   9.031   8.424   2.977
30168SOL    HW292512   8.904   8.459   2.902
30169SOL     OW92513   2.699   3.158   2.604
30169SOL    HW192514   2.665   3.208   2.678
30169SOL    HW292515   2.718   3.071   2.640
30170SOL     OW92516   1.469   4.479   2.049
30170SOL    HW192517   1.412   4.546   2.087
30170SOL    HW292518   1.413   4.432   1.986
30171SOL     OW92519   8.993   8.291   1.089
30171SOL    HW192520   8.931   8.228   1.126
30171SOL    HW292521   8.940   8.346   1.031
30172SOL     OW92522   9.605   5.739   6.755
30172SOL    HW192523   9.645   5.750   6.668
30172SOL    HW292524   9.555   5.819   6.769
30173SOL     OW92525   4.401   2.360  10.854
30173SOL    HW192526   4.386   2.412  10.775
30173SOL    HW292527   4.489   2.384  10.883
30174SOL     OW92528   1.113   3.057   5.348
30174SOL    HW192529   1.050   2.999   5.304
30174SOL    HW292530   1.118   3.023   5.437
30175SOL     OW92531   8.957   6.486   6.784
30175SOL    HW192532   8.864   6.482   6.762
30175SOL    HW292533   8.991   6.400   6.758
30176SOL     OW92534   0.140  10.948   6.075
30176SOL    HW192535   0.159  10.883   6.142
30176SOL    HW292536   0.197  11.022   6.095
30177SOL     OW92537   3.875   2.043   3.868
30177SOL    HW192538   3.869   2.041   3.963
30177SOL    HW292539   3.956   2.091   3.850
30178SOL     OW92540   4.851   1.393   3.909
30178SOL    HW192541   4.787   1.445   3.860
30178SOL    HW292542   4.934   1.408   3.863
30179SOL     OW92543   7.065   0.263   9.886
30179SOL    HW192544   7.071   0.236   9.794
30179SOL    HW292545   7.156   0.265   9.916
30180SOL     OW92546  10.261   2.815   7.111
30180SOL    HW192547  10.316   2.892   7.123
30180SOL    HW292548  10.296   2.750   7.172
30181SOL     OW92549   5.924   9.019   1.069
30181SOL    HW192550   5.870   8.943   1.046
30181SOL    HW292551   5.952   9.002   1.159
30182SOL     OW92552   5.928   6.633   4.655
30182SOL    HW192553   5.863   6.685   4.702
30182SOL    HW292554   5.978   6.589   4.724
30183SOL     OW92555   5.753   3.917   7.893
30183SOL    HW192556   5.827   3.950   7.841
30183SOL    HW292557   5.718   3.994   7.937
30184SOL     OW92558   3.625   3.021   4.454
30184SOL    HW192559   3.561   3.051   4.518
30184SOL    HW292560   3.606   2.928   4.442
30185SOL     OW92561   9.061   9.974   1.218
30185SOL    HW192562   9.130   9.945   1.278
30185SOL    HW292563   9.053   9.902   1.155
30186SOL     OW92564   6.936   6.085   4.115
30186SOL    HW192565   6.899   6.173   4.117
30186SOL    HW292566   7.030   6.099   4.106
30187SOL     OW92567   3.977   5.959  10.701
30187SOL    HW192568   3.927   5.887  10.740
30187SOL    HW292569   4.069   5.934  10.714
30188SOL     OW92570   2.156   4.903  10.485
30188SOL    HW192571   2.159   4.933  10.575
30188SOL    HW292572   2.210   4.965  10.436
30189SOL     OW92573   6.201   1.624   4.494
30189SOL    HW192574   6.237   1.699   4.447
30189SOL    HW292575   6.244   1.548   4.454
30190SOL     OW92576   9.389  10.377   8.673
30190SOL    HW192577   9.419  10.464   8.646
30190SOL    HW292578   9.320  10.355   8.610
30191SOL     OW92579   7.641   0.353   0.503
30191SOL    HW192580   7.726   0.313   0.483
30191SOL    HW292581   7.660   0.446   0.514
30192SOL     OW92582   7.750   1.166   5.531
30192SOL    HW192583   7.813   1.197   5.596
30192SOL    HW292584   7.794   1.092   5.488
30193SOL     OW92585   4.003   4.208   1.014
30193SOL    HW192586   3.951   4.138   0.973
30193SOL    HW292587   3.968   4.216   1.102
30194SOL     OW92588   7.935   1.390   8.614
30194SOL    HW192589   7.856   1.339   8.596
30194SOL    HW292590   7.911   1.480   8.593
30195SOL     OW92591   7.562   1.682   0.716
30195SOL    HW192592   7.505   1.714   0.785
30195SOL    HW292593   7.617   1.616   0.758
30196SOL     OW92594   5.737  11.067   4.478
30196SOL    HW192595   5.686  11.004   4.427
30196SOL    HW292596   5.820  11.022   4.496
30197SOL     OW92597   8.016  10.547   1.981
30197SOL    HW192598   7.992  10.513   1.895
30197SOL    HW292599   8.004  10.642   1.973
30198SOL     OW92600  10.382   5.829   9.827
30198SOL    HW192601  10.476   5.828   9.843
30198SOL    HW292602  10.372   5.789   9.740
30199SOL     OW92603  10.454  10.908  10.495
30199SOL    HW192604  10.497  10.839  10.444
30199SOL    HW292605  10.363  10.907  10.465
30200SOL     OW92606  10.568   5.700   0.153
30200SOL    HW192607  10.597   5.789   0.173
30200SOL    HW292608  10.514   5.709   0.075
30201SOL     OW92609   8.426   8.627   1.318
30201SOL    HW192610   8.507   8.578   1.305
30201SOL    HW292611   8.430   8.698   1.254
30202SOL     OW92612   7.532  10.058   4.511
30202SOL    HW192613   7.464  10.060   4.444
30202SOL    HW292614   7.498  10.113   4.581
30203SOL     OW92615  10.753   8.230   9.421
30203SOL    HW192616  10.846   8.251   9.427
30203SOL    HW292617  10.709   8.314   9.427
30204SOL     OW92618   0.882   3.794   8.607
30204SOL    HW192619   0.832   3.742   8.670
30204SOL    HW292620   0.836   3.781   8.524
30205SOL     OW92621   1.037   4.702   8.988
30205SOL    HW192622   1.067   4.745   8.908
30205SOL    HW292623   1.056   4.764   9.057
30206SOL     OW92624   3.058  10.620   8.658
30206SOL    HW192625   3.006  10.668   8.593
30206SOL    HW292626   2.997  10.556   8.694
30207SOL     OW92627   0.690   1.465   1.412
30207SOL    HW192628   0.630   1.538   1.425
30207SOL    HW292629   0.699   1.425   1.498
30208SOL     OW92630   4.239   3.873   7.557
30208SOL    HW192631   4.193   3.956   7.561
30208SOL    HW292632   4.265   3.864   7.465
30209SOL     OW92633   2.059   1.013   2.104
30209SOL    HW192634   2.072   1.100   2.066
30209SOL    HW292635   2.051   1.028   2.198
30210SOL     OW92636   7.687   0.714   3.373
30210SOL    HW192637   7.720   0.788   3.423
30210SOL    HW292638   7.594   0.711   3.393
30211SOL     OW92639   8.511   0.220   2.512
30211SOL    HW192640   8.534   0.130   2.488
30211SOL    HW292641   8.416   0.223   2.504
30212SOL     OW92642   0.755   7.009   2.945
30212SOL    HW192643   0.712   7.021   3.029
30212SOL    HW292644   0.849   7.010   2.965
30213SOL     OW92645   6.715   5.031   8.624
30213SOL    HW192646   6.794   5.044   8.571
30213SOL    HW292647   6.656   5.102   8.598
30214SOL     OW92648  10.220   0.845   8.864
30214SOL    HW192649  10.289   0.907   8.840
30214SOL    HW292650  10.262   0.785   8.926
30215SOL     OW92651   7.240   0.256   0.062
30215SOL    HW192652   7.296   0.260  -0.015
30215SOL    HW292653   7.253   0.168   0.097
30216SOL     OW92654  10.398   5.518   6.792
30216SOL    HW192655  10.489   5.513   6.820
30216SOL    HW292656  10.347   5.510   6.872
30217SOL     OW92657   8.150   3.962   2.083
30217SOL    HW192658   8.149   3.998   2.171
30217SOL    HW292659   8.232   3.994   2.045
30218SOL     OW92660   8.752   6.863   9.943
30218SOL    HW192661   8.819   6.814   9.894
30218SOL    HW292662   8.781   6.954   9.938
30219SOL     OW92663   5.451  10.668  10.078
30219SOL    HW192664   5.405  10.607  10.135
30219SOL    HW292665   5.510  10.613  10.027
30220SOL     OW92666   2.669   3.234   4.752
30220SOL    HW192667   2.747   3.250   4.805
30220SOL    HW292668   2.629   3.320   4.740
30221SOL     OW92669   8.657   8.944   9.673
30221SOL    HW192670   8.709   8.955   9.593
30221SOL    HW292671   8.567   8.958   9.645
30222SOL     OW92672  10.228   7.823   3.013
30222SOL    HW192673  10.204   7.732   2.994
30222SOL    HW292674  10.279   7.850   2.937
30223SOL     OW92675   3.351   0.885   1.986
30223SOL    HW192676   3.263   0.848   1.983
30223SOL    HW292677   3.389   0.861   1.901
30224SOL     OW92678   0.021   7.153   6.857
30224SOL    HW192679  -0.060   7.193   6.825
30224SOL    HW292680  -0.003   7.116   6.942
30225SOL     OW92681   6.197  10.287   1.713
30225SOL    HW192682   6.233  10.242   1.636
30225SOL    HW292683   6.107  10.256   1.718
30226SOL     OW92684   6.788   6.817   9.247
30226SOL    HW192685   6.855   6.799   9.313
30226SOL    HW292686   6.828   6.882   9.189
30227SOL     OW92687   7.905   5.719   2.289
30227SOL    HW192688   7.989   5.679   2.311
30227SOL    HW292689   7.857   5.722   2.372
30228SOL     OW92690   9.017   0.728   0.762
30228SOL    HW192691   9.024   0.785   0.685
30228SOL    HW292692   9.008   0.640   0.725
30229SOL     OW92693   2.524   3.385   6.691
30229SOL    HW192694   2.459   3.440   6.734
30229SOL    HW292695   2.503   3.296   6.720
30230SOL     OW92696   6.378   3.504   0.506
30230SOL    HW192697   6.465   3.482   0.473
30230SOL    HW292698   6.370   3.598   0.491
30231SOL     OW92699   6.163   0.127   3.404
30231SOL    HW192700   6.153   0.084   3.319
30231SOL    HW292701   6.173   0.054   3.466
30232SOL     OW92702   5.476   1.255   1.527
30232SOL    HW192703   5.385   1.225   1.529
30232SOL    HW292704   5.474   1.341   1.567
30233SOL     OW92705   0.836   3.085  10.665
30233SOL    HW192706   0.881   3.101  10.582
30233SOL    HW292707   0.892   3.126  10.731
30234SOL     OW92708   8.960   1.275   6.548
30234SOL    HW192709   8.970   1.213   6.620
30234SOL    HW292710   8.896   1.233   6.490
30235SOL     OW92711   6.887   1.397   0.163
30235SOL    HW192712   6.955   1.456   0.131
30235SOL    HW292713   6.837   1.374   0.085
30236SOL     OW92714   5.123   8.285   6.868
30236SOL    HW192715   5.160   8.240   6.792
30236SOL    HW292716   5.194   8.340   6.900
30237SOL     OW92717   2.282  10.977  10.288
30237SOL    HW192718   2.255  11.048  10.346
30237SOL    HW292719   2.230  10.990  10.209
30238SOL     OW92720   5.619   3.586   5.089
30238SOL    HW192721   5.554   3.586   5.159
30238SOL    HW292722   5.653   3.675   5.088
30239SOL     OW92723   7.040   8.273   2.773
30239SOL    HW192724   7.069   8.262   2.682
30239SOL    HW292725   6.949   8.245   2.772
30240SOL     OW92726   5.220   2.949   1.353
30240SOL    HW192727   5.147   3.008   1.372
30240SOL    HW292728   5.263   2.935   1.437
30241SOL     OW92729   7.230   3.295   6.533
30241SOL    HW192730   7.277   3.315   6.452
30241SOL    HW292731   7.165   3.364   6.541
30242SOL     OW92732   7.455   9.910   8.792
30242SOL    HW192733   7.500   9.847   8.735
30242SOL    HW292734   7.453   9.867   8.877
30243SOL     OW92735   8.960   7.577   3.328
30243SOL    HW192736   8.974   7.525   3.407
30243SOL    HW292737   8.865   7.584   3.320
30244SOL     OW92738   7.184   7.652   3.417
30244SOL    HW192739   7.156   7.722   3.358
30244SOL    HW292740   7.111   7.590   3.417
30245SOL     OW92741   1.076   2.500   8.581
30245SOL    HW192742   1.143   2.508   8.648
30245SOL    HW292743   1.015   2.434   8.615
30246SOL     OW92744   2.148   9.982   6.901
30246SOL    HW192745   2.183  10.004   6.815
30246SOL    HW292746   2.147  10.064   6.949
30247SOL     OW92747   3.635  10.025   5.935
30247SOL    HW192748   3.728  10.012   5.918
30247SOL    HW292749   3.609   9.949   5.987
30248SOL     OW92750   1.540  10.725   5.264
30248SOL    HW192751   1.467  10.758   5.212
30248SOL    HW292752   1.599  10.800   5.273
30249SOL     OW92753  10.390   4.620   8.236
30249SOL    HW192754  10.427   4.707   8.221
30249SOL    HW292755  10.466   4.564   8.251
30250SOL     OW92756   4.824   4.221   2.149
30250SOL    HW192757   4.736   4.190   2.171
30250SOL    HW292758   4.864   4.147   2.102
30251SOL     OW92759   8.959   0.821   1.305
30251SOL    HW192760   8.948   0.848   1.214
30251SOL    HW292761   8.873   0.836   1.345
30252SOL     OW92762   9.288   4.951   4.663
30252SOL    HW192763   9.195   4.939   4.679
30252SOL    HW292764   9.307   5.040   4.690
30253SOL     OW92765   8.235   4.299  10.740
30253SOL    HW192766   8.189   4.222  10.706
30253SOL    HW292767   8.291   4.327  10.667
30254SOL     OW92768   7.686   9.672   2.524
30254SOL    HW192769   7.696   9.685   2.618
30254SOL    HW292770   7.593   9.653   2.512
30255SOL     OW92771   3.230   1.239   2.479
30255SOL    HW192772   3.296   1.281   2.424
30255SOL    HW292773   3.178   1.187   2.417
30256SOL     OW92774   5.727   2.407   9.018
30256SOL    HW192775   5.788   2.448   8.957
30256SOL    HW292776   5.643   2.409   8.972
30257SOL     OW92777   7.297   8.390   3.730
30257SOL    HW192778   7.337   8.469   3.766
30257SOL    HW292779   7.294   8.328   3.803
30258SOL     OW92780   1.018   8.651   4.078
30258SOL    HW192781   1.073   8.578   4.107
30258SOL    HW292782   1.081   8.717   4.048
30259SOL     OW92783   9.826   6.262   0.704
30259SOL    HW192784   9.837   6.243   0.797
30259SOL    HW292785   9.887   6.333   0.686
30260SOL     OW92786   2.547   2.138   3.809
30260SOL    HW192787   2.573   2.226   3.836
30260SOL    HW292788   2.602   2.119   3.733
30261SOL     OW92789   6.579   5.777   2.197
30261SOL    HW192790   6.484   5.783   2.193
30261SOL    HW292791   6.601   5.791   2.289
30262SOL     OW92792   4.000   3.331   4.790
30262SOL    HW192793   3.919   3.280   4.795
30262SOL    HW292794   3.992   3.398   4.857
30263SOL     OW92795   7.782   5.650   0.049
30263SOL    HW192796   7.744   5.706  -0.018
30263SOL    HW292797   7.753   5.561   0.026
30264SOL     OW92798  10.245   5.723   8.156
30264SOL    HW192799  10.225   5.732   8.249
30264SOL    HW292800  10.284   5.806   8.131
30265SOL     OW92801   8.674   0.112   1.816
30265SOL    HW192802   8.660   0.171   1.890
30265SOL    HW292803   8.769   0.100   1.813
30266SOL     OW92804   0.487   6.033   1.791
30266SOL    HW192805   0.580   6.035   1.813
30266SOL    HW292806   0.442   6.058   1.871
30267SOL     OW92807   7.730   1.896   4.281
30267SOL    HW192808   7.749   1.958   4.350
30267SOL    HW292809   7.635   1.892   4.278
30268SOL     OW92810   1.618   6.250   0.992
30268SOL    HW192811   1.580   6.162   0.996
30268SOL    HW292812   1.660   6.253   0.906
30269SOL     OW92813   6.773   6.541   9.944
30269SOL    HW192814   6.780   6.458   9.896
30269SOL    HW292815   6.790   6.608   9.878
30270SOL     OW92816   7.120   8.311   8.545
30270SOL    HW192817   7.176   8.379   8.582
30270SOL    HW292818   7.088   8.348   8.463
30271SOL     OW92819   8.753   4.854   4.644
30271SOL    HW192820   8.672   4.885   4.604
30271SOL    HW292821   8.726   4.810   4.724
30272SOL     OW92822   6.120   5.314   2.997
30272SOL    HW192823   6.148   5.251   2.930
30272SOL    HW292824   6.162   5.284   3.077
30273SOL     OW92825   9.492  10.533   4.238
30273SOL    HW192826   9.501  10.602   4.172
30273SOL    HW292827   9.568  10.477   4.224
30274SOL     OW92828   6.989  10.875   9.714
30274SOL    HW192829   7.022  10.834   9.634
30274SOL    HW292830   7.053  10.943   9.734
30275SOL     OW92831   7.267   9.541   5.726
30275SOL    HW192832   7.261   9.628   5.765
30275SOL    HW292833   7.258   9.556   5.632
30276SOL     OW92834   1.080   5.507   5.963
30276SOL    HW192835   1.056   5.578   5.903
30276SOL    HW292836   1.018   5.437   5.943
30277SOL     OW92837   8.205   7.613   9.550
30277SOL    HW192838   8.289   7.567   9.560
30277SOL    HW292839   8.145   7.546   9.517
30278SOL     OW92840   1.116   2.087   8.931
30278SOL    HW192841   1.047   2.022   8.919
30278SOL    HW292842   1.168   2.054   9.004
30279SOL     OW92843  10.270   6.551   2.759
30279SOL    HW192844  10.246   6.544   2.666
30279SOL    HW292845  10.187   6.542   2.806
30280SOL     OW92846   7.176   5.086   1.086
30280SOL    HW192847   7.098   5.086   1.031
30280SOL    HW292848   7.180   5.174   1.123
30281SOL     OW92849   3.299   0.078   3.016
30281SOL    HW192850   3.204   0.069   3.012
30281SOL    HW292851   3.314   0.165   3.052
30282SOL     OW92852   1.971   4.824   2.731
30282SOL    HW192853   1.911   4.838   2.657
30282SOL    HW292854   1.921   4.851   2.808
30283SOL     OW92855   5.431   1.060   9.662
30283SOL    HW192856   5.336   1.063   9.670
30283SOL    HW292857   5.454   0.969   9.682
30284SOL     OW92858   4.511   7.897   8.071
30284SOL    HW192859   4.495   7.936   8.157
30284SOL    HW292860   4.481   7.806   8.080
30285SOL     OW92861   6.470   2.845  10.514
30285SOL    HW192862   6.482   2.757  10.477
30285SOL    HW292863   6.461   2.902  10.437
30286SOL     OW92864   4.392   2.760   1.488
30286SOL    HW192865   4.393   2.732   1.579
30286SOL    HW292866   4.301   2.748   1.460
30287SOL     OW92867   3.493   4.505   1.162
30287SOL    HW192868   3.472   4.588   1.120
30287SOL    HW292869   3.472   4.519   1.254
30288SOL     OW92870  10.734   4.209   3.377
30288SOL    HW192871  10.740   4.130   3.431
30288SOL    HW292872  10.779   4.276   3.427
30289SOL     OW92873   5.473  -0.001   2.225
30289SOL    HW192874   5.521  -0.000   2.142
30289SOL    HW292875   5.395   0.051   2.208
30290SOL     OW92876   8.063   5.966  10.194
30290SOL    HW192877   8.097   6.028  10.130
30290SOL    HW292878   8.093   5.999  10.278
30291SOL     OW92879  10.013   0.667   0.249
30291SOL    HW192880  10.106   0.655   0.227
30291SOL    HW292881  10.012   0.678   0.344
30292SOL     OW92882   3.319   5.694   1.668
30292SOL    HW192883   3.255   5.632   1.703
30292SOL    HW292884   3.324   5.672   1.575
30293SOL     OW92885   4.101   0.619   9.958
30293SOL    HW192886   4.029   0.561   9.984
30293SOL    HW292887   4.094   0.694  10.016
30294SOL     OW92888   7.919   8.984   9.363
30294SOL    HW192889   7.943   9.066   9.320
30294SOL    HW292890   7.882   9.010   9.447
30295SOL     OW92891   5.959   5.831   7.414
30295SOL    HW192892   5.923   5.891   7.478
30295SOL    HW292893   5.898   5.836   7.340
30296SOL     OW92894   5.688   6.570   0.955
30296SOL    HW192895   5.603   6.532   0.932
30296SOL    HW292896   5.691   6.653   0.908
30297SOL     OW92897   9.860   0.341   8.235
30297SOL    HW192898   9.918   0.330   8.159
30297SOL    HW292899   9.772   0.327   8.200
30298SOL     OW92900   7.765   9.095   4.949
30298SOL    HW192901   7.758   9.037   5.025
30298SOL    HW292902   7.675   9.105   4.918
30299SOL     OW92903   0.078   5.560   0.797
30299SOL    HW192904   0.151   5.613   0.829
30299SOL    HW292905   0.070   5.489   0.861
30300SOL     OW92906   7.701   7.094   0.329
30300SOL    HW192907   7.774   7.087   0.390
30300SOL    HW292908   7.716   7.176   0.282
30301SOL     OW92909   7.246   2.723   4.931
30301SOL    HW192910   7.162   2.760   4.959
30301SOL    HW292911   7.305   2.739   5.004
30302SOL     OW92912   5.685   3.844   1.181
30302SOL    HW192913   5.646   3.853   1.094
30302SOL    HW292914   5.663   3.925   1.226
30303SOL     OW92915  10.470   2.848   3.322
30303SOL    HW192916  10.514   2.929   3.296
30303SOL    HW292917  10.424   2.870   3.403
30304SOL     OW92918   1.971   2.769   6.561
30304SOL    HW192919   1.957   2.844   6.504
30304SOL    HW292920   2.063   2.775   6.587
30305SOL     OW92921   8.702   5.894   4.007
30305SOL    HW192922   8.665   5.965   4.059
30305SOL    HW292923   8.699   5.926   3.917
30306SOL     OW92924  10.721   1.008   9.105
30306SOL    HW192925  10.652   1.070   9.128
30306SOL    HW292926  10.780   1.057   9.048
30307SOL     OW92927   8.104   4.369   6.004
30307SOL    HW192928   8.193   4.390   5.976
30307SOL    HW292929   8.115   4.298   6.067
30308SOL     OW92930   8.192   5.823  10.920
30308SOL    HW192931   8.270   5.771  10.939
30308SOL    HW292932   8.138   5.765  10.866
30309SOL     OW92933   2.844   1.146   0.102
30309SOL    HW192934   2.931   1.172   0.072
30309SOL    HW292935   2.789   1.150   0.024
30310SOL     OW92936   6.173  10.308   0.501
30310SOL    HW192937   6.118  10.368   0.450
30310SOL    HW292938   6.236  10.274   0.437
30311SOL     OW92939   2.150   6.387   7.233
30311SOL    HW192940   2.105   6.463   7.269
30311SOL    HW292941   2.080   6.325   7.214
30312SOL     OW92942   8.078   0.858   4.462
30312SOL    HW192943   8.092   0.782   4.518
30312SOL    HW292944   8.128   0.838   4.383
30313SOL     OW92945   5.232   0.845   0.560
30313SOL    HW192946   5.158   0.891   0.597
30313SOL    HW292947   5.210   0.752   0.570
30314SOL     OW92948   2.815   2.664   2.622
30314SOL    HW192949   2.745   2.643   2.560
30314SOL    HW292950   2.888   2.606   2.597
30315SOL     OW92951   3.582   4.649   0.703
30315SOL    HW192952   3.546   4.582   0.761
30315SOL    HW292953   3.672   4.662   0.733
30316SOL     OW92954   1.167  10.941   7.766
30316SOL    HW192955   1.096  10.948   7.829
30316SOL    HW292956   1.195  11.031   7.751
30317SOL     OW92957   2.866   7.820   7.110
30317SOL    HW192958   2.948   7.857   7.078
30317SOL    HW292959   2.888   7.781   7.194
30318SOL     OW92960   2.102   2.666   1.369
30318SOL    HW192961   2.032   2.726   1.344
30318SOL    HW292962   2.154   2.715   1.432
30319SOL     OW92963   9.965   3.665  10.233
30319SOL    HW192964   9.888   3.609  10.242
30319SOL    HW292965   9.930   3.752  10.215
30320SOL     OW92966   8.349   2.250   0.121
30320SOL    HW192967   8.327   2.195   0.045
30320SOL    HW292968   8.288   2.323   0.117
30321SOL     OW92969   9.998   4.377   0.368
30321SOL    HW192970   9.958   4.297   0.403
30321SOL    HW292971  10.092   4.360   0.374
30322SOL     OW92972   0.871   2.313   1.240
30322SOL    HW192973   0.868   2.406   1.262
30322SOL    HW292974   0.942   2.305   1.176
30323SOL     OW92975  10.126   8.708   8.323
30323SOL    HW192976  10.067   8.770   8.281
30323SOL    HW292977  10.200   8.760   8.352
30324SOL     OW92978   4.996   9.603   0.913
30324SOL    HW192979   5.010   9.693   0.942
30324SOL    HW292980   4.945   9.611   0.832
30325SOL     OW92981   7.296   3.105   2.939
30325SOL    HW192982   7.348   3.147   3.007
30325SOL    HW292983   7.220   3.162   2.928
30326SOL     OW92984  11.075   1.672   7.946
30326SOL    HW192985  11.167   1.647   7.938
30326SOL    HW292986  11.060   1.730   7.872
30327SOL     OW92987   8.776   2.222   1.033
30327SOL    HW192988   8.817   2.165   1.098
30327SOL    HW292989   8.783   2.310   1.069
30328SOL     OW92990   1.760  10.277   3.900
30328SOL    HW192991   1.842  10.229   3.891
30328SOL    HW292992   1.779  10.363   3.862
30329SOL     OW92993   6.384   9.229   3.094
30329SOL    HW192994   6.402   9.282   3.016
30329SOL    HW292995   6.427   9.275   3.166
30330SOL     OW92996   5.167   4.233   1.454
30330SOL    HW192997   5.163   4.190   1.539
30330SOL    HW292998   5.105   4.184   1.400
30331SOL     OW92999   4.053  10.301   8.962
30331SOL    HW193000   4.077  10.232   8.899
30331SOL    HW293001   4.009  10.367   8.909
30332SOL     OW93002   8.424   0.910   7.740
30332SOL    HW193003   8.421   0.816   7.721
30332SOL    HW293004   8.413   0.951   7.654
30333SOL     OW93005   9.132   8.029   1.040
30333SOL    HW193006   9.149   8.122   1.027
30333SOL    HW293007   9.217   7.987   1.027
30334SOL     OW93008  11.014   3.495   6.562
30334SOL    HW193009  11.051   3.511   6.649
30334SOL    HW293010  11.085   3.452   6.513
30335SOL     OW93011  10.020   3.871   1.315
30335SOL    HW193012  10.086   3.807   1.285
30335SOL    HW293013  10.023   3.940   1.249
30336SOL     OW93014   6.373   3.673   4.545
30336SOL    HW193015   6.429   3.718   4.481
30336SOL    HW293016   6.296   3.729   4.553
30337SOL     OW93017   0.478   9.086   1.458
30337SOL    HW193018   0.423   9.036   1.518
30337SOL    HW293019   0.534   9.139   1.514
30338SOL     OW93020   9.205   9.459   2.916
30338SOL    HW193021   9.206   9.403   2.993
30338SOL    HW293022   9.247   9.540   2.944
30339SOL     OW93023   9.775   6.283   9.505
30339SOL    HW193024   9.806   6.199   9.540
30339SOL    HW293025   9.848   6.343   9.518
30340SOL     OW93026   2.681   8.975   0.583
30340SOL    HW193027   2.613   8.982   0.516
30340SOL    HW293028   2.755   9.024   0.547
30341SOL     OW93029  11.034   5.516   9.089
30341SOL    HW193030  11.104   5.526   9.024
30341SOL    HW293031  11.009   5.423   9.083
30342SOL     OW93032   3.114   2.170   3.179
30342SOL    HW193033   3.186   2.129   3.227
30342SOL    HW293034   3.064   2.217   3.245
30343SOL     OW93035   6.740   2.900   1.879
30343SOL    HW193036   6.719   2.808   1.861
30343SOL    HW293037   6.720   2.911   1.972
30344SOL     OW93038  10.967   3.599   1.300
30344SOL    HW193039  10.960   3.557   1.386
30344SOL    HW293040  11.019   3.538   1.247
30345SOL     OW93041   9.454   5.851   3.191
30345SOL    HW193042   9.455   5.784   3.122
30345SOL    HW293043   9.514   5.817   3.257
30346SOL     OW93044   1.118   0.795  10.867
30346SOL    HW193045   1.186   0.856  10.837
30346SOL    HW293046   1.147   0.767  10.954
30347SOL     OW93047   4.118   2.161   3.840
30347SOL    HW193048   4.142   2.231   3.900
30347SOL    HW293049   4.185   2.094   3.854
30348SOL     OW93050  10.063   1.115   3.282
30348SOL    HW193051  10.086   1.201   3.248
30348SOL    HW293052   9.976   1.098   3.247
30349SOL     OW93053   4.958   0.268  11.043
30349SOL    HW193054   4.986   0.353  11.010
30349SOL    HW293055   4.987   0.267  11.134
30350SOL     OW93056   4.153   9.337   8.734
30350SOL    HW193057   4.090   9.341   8.806
30350SOL    HW293058   4.206   9.259   8.752
30351SOL     OW93059   9.511   0.182   4.796
30351SOL    HW193060   9.530   0.098   4.754
30351SOL    HW293061   9.480   0.237   4.724
30352SOL     OW93062   5.992  10.053   2.724
30352SOL    HW193063   6.085  10.067   2.742
30352SOL    HW293064   5.960  10.003   2.799
30353SOL     OW93065   4.878   3.666   2.284
30353SOL    HW193066   4.885   3.761   2.279
30353SOL    HW293067   4.966   3.637   2.310
30354SOL     OW93068   5.059   9.868   1.441
30354SOL    HW193069   5.099   9.950   1.413
30354SOL    HW293070   4.983   9.894   1.493
30355SOL     OW93071   3.446   4.488   5.891
30355SOL    HW193072   3.394   4.534   5.956
30355SOL    HW293073   3.519   4.451   5.940
30356SOL     OW93074  10.675   9.805  10.534
30356SOL    HW193075  10.643   9.883  10.579
30356SOL    HW293076  10.641   9.731  10.585
30357SOL     OW93077   6.569  10.164   0.448
30357SOL    HW193078   6.619  10.184   0.527
30357SOL    HW293079   6.584  10.239   0.390
30358SOL     OW93080   3.863   1.437   4.139
30358SOL    HW193081   3.858   1.468   4.049
30358SOL    HW293082   3.807   1.496   4.188
30359SOL     OW93083   8.229   0.166   3.196
30359SOL    HW193084   8.243   0.229   3.125
30359SOL    HW293085   8.287   0.195   3.266
30360SOL     OW93086   8.305   8.809   3.860
30360SOL    HW193087   8.353   8.820   3.778
30360SOL    HW293088   8.365   8.840   3.927
30361SOL     OW93089  10.216   0.743   8.099
30361SOL    HW193090  10.226   0.822   8.151
30361SOL    HW293091  10.161   0.686   8.152
30362SOL     OW93092   9.176   3.153   3.633
30362SOL    HW193093   9.142   3.089   3.570
30362SOL    HW293094   9.174   3.236   3.586
30363SOL     OW93095   1.343   6.953   9.844
30363SOL    HW193096   1.313   7.017   9.908
30363SOL    HW293097   1.380   7.005   9.773
30364SOL     OW93098   7.491   2.044   1.778
30364SOL    HW193099   7.446   1.960   1.764
30364SOL    HW293100   7.473   2.066   1.869
30365SOL     OW93101  10.024   8.282  10.310
30365SOL    HW193102  10.082   8.250  10.241
30365SOL    HW293103   9.970   8.206  10.332
30366SOL     OW93104   1.439  10.522   2.547
30366SOL    HW193105   1.364  10.463   2.549
30366SOL    HW293106   1.480  10.506   2.462
30367SOL     OW93107   6.490  10.956   3.275
30367SOL    HW193108   6.569  10.927   3.229
30367SOL    HW293109   6.515  11.039   3.315
30368SOL     OW93110  10.899   1.139   4.738
30368SOL    HW193111  10.914   1.055   4.695
30368SOL    HW293112  10.984   1.183   4.735
30369SOL     OW93113   1.536   3.174   9.105
30369SOL    HW193114   1.586   3.095   9.128
30369SOL    HW293115   1.597   3.227   9.054
30370SOL     OW93116  10.192   6.218   2.114
30370SOL    HW193117  10.226   6.258   2.194
30370SOL    HW293118  10.243   6.137   2.104
30371SOL     OW93119  10.192   1.159  10.577
30371SOL    HW193120  10.212   1.135  10.486
30371SOL    HW293121  10.115   1.216  10.570
30372SOL     OW93122   7.441   1.087   1.327
30372SOL    HW193123   7.363   1.059   1.279
30372SOL    HW293124   7.412   1.162   1.378
30373SOL     OW93125   4.877   5.929   0.329
30373SOL    HW193126   4.798   5.916   0.381
30373SOL    HW293127   4.855   6.001   0.270
30374SOL     OW93128   8.343   1.750   0.500
30374SOL    HW193129   8.336   1.695   0.578
30374SOL    HW293130   8.363   1.689   0.429
30375SOL     OW93131   7.521  10.168   3.312
30375SOL    HW193132   7.474  10.091   3.345
30375SOL    HW293133   7.611  10.137   3.301
30376SOL     OW93134   1.442   3.227   5.081
30376SOL    HW193135   1.347   3.237   5.081
30376SOL    HW293136   1.456   3.132   5.080
30377SOL     OW93137   6.342   3.685   1.298
30377SOL    HW193138   6.333   3.748   1.227
30377SOL    HW293139   6.261   3.693   1.348
30378SOL     OW93140   2.509   6.268   3.985
30378SOL    HW193141   2.521   6.242   4.076
30378SOL    HW293142   2.587   6.235   3.940
30379SOL     OW93143   6.369   7.243   3.309
30379SOL    HW193144   6.393   7.294   3.386
30379SOL    HW293145   6.334   7.307   3.247
30380SOL     OW93146  10.298   4.524   4.657
30380SOL    HW193147  10.344   4.603   4.683
30380SOL    HW293148  10.366   4.457   4.653
30381SOL     OW93149   8.309   2.825   5.558
30381SOL    HW193150   8.346   2.783   5.635
30381SOL    HW293151   8.219   2.847   5.583
30382SOL     OW93152   8.345  10.724   2.239
30382SOL    HW193153   8.318  10.673   2.315
30382SOL    HW293154   8.302  10.809   2.250
30383SOL     OW93155   4.403   4.469   0.474
30383SOL    HW193156   4.324   4.490   0.523
30383SOL    HW293157   4.371   4.437   0.389
30384SOL     OW93158   8.461   3.894   5.959
30384SOL    HW193159   8.491   3.953   5.890
30384SOL    HW293160   8.416   3.950   6.022
30385SOL     OW93161  10.835   5.965   0.116
30385SOL    HW193162  10.789   5.978   0.199
30385SOL    HW293163  10.766   5.960   0.051
30386SOL     OW93164   0.023   3.877   4.564
30386SOL    HW193165  -0.030   3.838   4.494
30386SOL    HW293166   0.093   3.813   4.578
30387SOL     OW93167   6.422   6.561   6.697
30387SOL    HW193168   6.350   6.531   6.753
30387SOL    HW293169   6.487   6.490   6.701
30388SOL     OW93170   4.825   0.710   4.283
30388SOL    HW193171   4.874   0.723   4.201
30388SOL    HW293172   4.850   0.622   4.312
30389SOL     OW93173   6.106   2.396   2.088
30389SOL    HW193174   6.087   2.455   2.161
30389SOL    HW293175   6.106   2.452   2.010
30390SOL     OW93176   6.999   4.680   5.535
30390SOL    HW193177   7.064   4.683   5.605
30390SOL    HW293178   6.953   4.597   5.548
30391SOL     OW93179   7.141   9.397   3.238
30391SOL    HW193180   7.184   9.379   3.321
30391SOL    HW293181   7.114   9.488   3.244
30392SOL     OW93182   0.008   8.803   1.174
30392SOL    HW193183  -0.063   8.864   1.156
30392SOL    HW293184   0.073   8.821   1.106
30393SOL     OW93185   7.523   8.590   2.404
30393SOL    HW193186   7.440   8.596   2.356
30393SOL    HW293187   7.590   8.587   2.335
30394SOL     OW93188   7.885   2.889   0.435
30394SOL    HW193189   7.832   2.855   0.363
30394SOL    HW293190   7.913   2.975   0.405
30395SOL     OW93191   8.409   5.357   4.752
30395SOL    HW193192   8.370   5.296   4.688
30395SOL    HW293193   8.335   5.388   4.804
30396SOL     OW93194   5.053   9.496   9.348
30396SOL    HW193195   5.054   9.489   9.252
30396SOL    HW293196   5.003   9.420   9.377
30397SOL     OW93197   9.669   8.506   2.967
30397SOL    HW193198   9.703   8.435   3.021
30397SOL    HW293199   9.617   8.462   2.900
30398SOL     OW93200   9.154   2.510   8.915
30398SOL    HW193201   9.087   2.558   8.867
30398SOL    HW293202   9.164   2.557   8.997
30399SOL     OW93203   6.322   0.849   2.106
30399SOL    HW193204   6.268   0.927   2.112
30399SOL    HW293205   6.369   0.846   2.189
30400SOL     OW93206   9.595   2.929   7.731
30400SOL    HW193207   9.596   2.986   7.654
30400SOL    HW293208   9.687   2.909   7.747
30401SOL     OW93209   6.998   0.911   0.161
30401SOL    HW193210   7.042   0.845   0.108
30401SOL    HW293211   7.017   0.994   0.118
30402SOL     OW93212   3.893   1.823   9.737
30402SOL    HW193213   3.937   1.903   9.709
30402SOL    HW293214   3.948   1.789   9.808
30403SOL     OW93215   9.715   2.908   4.317
30403SOL    HW193216   9.675   2.987   4.352
30403SOL    HW293217   9.644   2.863   4.271
30404SOL     OW93218  10.554   1.029   7.586
30404SOL    HW193219  10.481   1.082   7.617
30404SOL    HW293220  10.514   0.961   7.532
30405SOL     OW93221   5.431   2.288   5.065
30405SOL    HW193222   5.350   2.331   5.037
30405SOL    HW293223   5.451   2.227   4.994
30406SOL     OW93224   0.300   0.033  10.871
30406SOL    HW193225   0.221   0.080  10.897
30406SOL    HW293226   0.269  -0.054  10.845
30407SOL     OW93227   4.565   4.201   0.139
30407SOL    HW193228   4.520   4.140   0.198
30407SOL    HW293229   4.511   4.279   0.139
30408SOL     OW93230   9.599   5.546   0.290
30408SOL    HW193231   9.582   5.636   0.263
30408SOL    HW293232   9.661   5.554   0.362
30409SOL     OW93233   8.112   7.090   8.449
30409SOL    HW193234   8.206   7.102   8.463
30409SOL    HW293235   8.071   7.153   8.508
30410SOL     OW93236   7.551   4.710   8.557
30410SOL    HW193237   7.583   4.739   8.471
30410SOL    HW293238   7.607   4.635   8.580
30411SOL     OW93239   6.486   1.748   1.397
30411SOL    HW193240   6.522   1.659   1.398
30411SOL    HW293241   6.404   1.741   1.446
30412SOL     OW93242   5.579   5.761   0.520
30412SOL    HW193243   5.673   5.762   0.504
30412SOL    HW293244   5.568   5.812   0.600
30413SOL     OW93245   7.175   4.719   0.152
30413SOL    HW193246   7.107   4.786   0.147
30413SOL    HW293247   7.254   4.762   0.119
30414SOL     OW93248   8.802   1.102   0.058
30414SOL    HW193249   8.745   1.042   0.106
30414SOL    HW293250   8.762   1.109  -0.028
30415SOL     OW93251   8.926   2.674   7.406
30415SOL    HW193252   8.913   2.579   7.407
30415SOL    HW293253   8.857   2.707   7.348
30416SOL     OW93254   4.020   5.278   9.422
30416SOL    HW193255   4.050   5.325   9.344
30416SOL    HW293256   4.096   5.225   9.448
30417SOL     OW93257   8.972   0.017   3.640
30417SOL    HW193258   9.002  -0.072   3.617
30417SOL    HW293259   8.882   0.005   3.671
30418SOL     OW93260   2.382   4.964   0.243
30418SOL    HW193261   2.398   4.992   0.153
30418SOL    HW293262   2.465   4.981   0.288
30419SOL     OW93263   8.372  10.260   3.391
30419SOL    HW193264   8.452  10.268   3.338
30419SOL    HW293265   8.374  10.335   3.450
30420SOL     OW93266   7.436   8.854   7.052
30420SOL    HW193267   7.373   8.821   6.988
30420SOL    HW293268   7.520   8.817   7.024
30421SOL     OW93269   5.124   6.435  10.895
30421SOL    HW193270   5.104   6.418  10.987
30421SOL    HW293271   5.044   6.410  10.848
30422SOL     OW93272   0.161   1.253   2.384
30422SOL    HW193273   0.235   1.287   2.433
30422SOL    HW293274   0.159   1.306   2.304
30423SOL     OW93275   3.795   2.994   3.712
30423SOL    HW193276   3.767   2.902   3.705
30423SOL    HW293277   3.736   3.033   3.776
30424SOL     OW93278  10.758   2.626   8.934
30424SOL    HW193279  10.690   2.559   8.939
30424SOL    HW293280  10.840   2.577   8.938
30425SOL     OW93281   9.389   5.059   0.538
30425SOL    HW193282   9.472   5.035   0.580
30425SOL    HW293283   9.405   5.145   0.500
30426SOL     OW93284   4.583  10.188   9.262
30426SOL    HW193285   4.509  10.140   9.298
30426SOL    HW293286   4.632  10.218   9.338
30427SOL     OW93287   5.759  10.449  10.064
30427SOL    HW193288   5.670  10.420  10.045
30427SOL    HW293289   5.808  10.428   9.984
30428SOL     OW93290   1.871   2.668   0.277
30428SOL    HW193291   1.882   2.749   0.327
30428SOL    HW293292   1.781   2.641   0.294
30429SOL     OW93293   0.370   8.832   0.268
30429SOL    HW193294   0.288   8.865   0.232
30429SOL    HW293295   0.419   8.910   0.292
30430SOL     OW93296   9.608   5.572   4.990
30430SOL    HW193297   9.583   5.481   5.007
30430SOL    HW293298   9.566   5.592   4.906
30431SOL     OW93299   3.083   0.792   1.887
30431SOL    HW193300   3.094   0.811   1.794
30431SOL    HW293301   3.085   0.696   1.892
30432SOL     OW93302   5.018   7.415   5.838
30432SOL    HW193303   4.957   7.474   5.795
30432SOL    HW293304   5.040   7.458   5.920
30433SOL     OW93305   4.473  10.474  10.488
30433SOL    HW193306   4.405  10.412  10.460
30433SOL    HW293307   4.480  10.536  10.415
30434SOL     OW93308  10.691   0.659   0.413
30434SOL    HW193309  10.629   0.591   0.441
30434SOL    HW293310  10.636   0.735   0.394
30435SOL     OW93311   3.820   5.594   1.554
30435SOL    HW193312   3.861   5.680   1.556
30435SOL    HW293313   3.865   5.548   1.483
30436SOL     OW93314   8.515   0.713  10.373
30436SOL    HW193315   8.541   0.632  10.418
30436SOL    HW293316   8.499   0.686  10.282
30437SOL     OW93317   9.728   0.302   3.186
30437SOL    HW193318   9.697   0.331   3.271
30437SOL    HW293319   9.761   0.381   3.143
30438SOL     OW93320   0.725   7.876   7.091
30438SOL    HW193321   0.794   7.837   7.037
30438SOL    HW293322   0.677   7.801   7.126
30439SOL     OW93323   3.040   4.816   4.868
30439SOL    HW193324   3.013   4.779   4.952
30439SOL    HW293325   2.964   4.866   4.838
30440SOL     OW93326   7.266   4.536   0.913
30440SOL    HW193327   7.276   4.601   0.844
30440SOL    HW293328   7.202   4.574   0.973
30441SOL     OW93329   1.925   7.511   6.717
30441SOL    HW193330   1.890   7.599   6.732
30441SOL    HW293331   1.856   7.466   6.668
30442SOL     OW93332   3.024   1.648   0.679
30442SOL    HW193333   2.996   1.653   0.770
30442SOL    HW293334   3.041   1.738   0.653
30443SOL     OW93335   8.683   7.534   3.301
30443SOL    HW193336   8.638   7.466   3.251
30443SOL    HW293337   8.615   7.573   3.356
30444SOL     OW93338   7.642   2.100   9.322
30444SOL    HW193339   7.577   2.039   9.287
30444SOL    HW293340   7.716   2.093   9.261
30445SOL     OW93341   3.174   0.557   4.394
30445SOL    HW193342   3.208   0.569   4.305
30445SOL    HW293343   3.240   0.502   4.437
30446SOL     OW93344   6.762   4.093   0.588
30446SOL    HW193345   6.777   4.031   0.516
30446SOL    HW293346   6.713   4.165   0.548
30447SOL     OW93347   3.687   3.419   0.858
30447SOL    HW193348   3.648   3.337   0.826
30447SOL    HW293349   3.635   3.442   0.935
30448SOL     OW93350   8.943   9.520   3.163
30448SOL    HW193351   8.911   9.430   3.151
30448SOL    HW293352   8.901   9.570   3.093
30449SOL     OW93353   7.650   6.458   2.322
30449SOL    HW193354   7.623   6.410   2.243
30449SOL    HW293355   7.725   6.408   2.355
30450SOL     OW93356   2.235   4.035   0.182
30450SOL    HW193357   2.210   4.122   0.153
30450SOL    HW293358   2.276   4.048   0.268
30451SOL     OW93359   6.780  10.929   1.967
30451SOL    HW193360   6.738  10.983   2.034
30451SOL    HW293361   6.730  10.946   1.887
30452SOL     OW93362  11.048   3.410   9.105
30452SOL    HW193363  11.016   3.480   9.162
30452SOL    HW293364  11.094   3.455   9.034
30453SOL     OW93365   8.844  10.280   7.767
30453SOL    HW193366   8.863  10.228   7.688
30453SOL    HW293367   8.749  10.289   7.767
30454SOL     OW93368   3.251   4.025   9.377
30454SOL    HW193369   3.190   3.997   9.445
30454SOL    HW293370   3.322   4.068   9.424
30455SOL     OW93371   1.702   2.851   4.905
30455SOL    HW193372   1.616   2.881   4.932
30455SOL    HW293373   1.703   2.757   4.925
30456SOL     OW93374   8.931   7.984   2.347
30456SOL    HW193375   8.888   8.029   2.274
30456SOL    HW293376   8.887   8.017   2.425
30457SOL     OW93377   0.047   6.261   0.885
30457SOL    HW193378  -0.013   6.264   0.960
30457SOL    HW293379   0.017   6.186   0.833
30458SOL     OW93380   5.976   1.520   8.336
30458SOL    HW193381   5.982   1.511   8.431
30458SOL    HW293382   6.034   1.451   8.302
30459SOL     OW93383   2.168   3.737   2.365
30459SOL    HW193384   2.193   3.677   2.435
30459SOL    HW293385   2.252   3.763   2.326
30460SOL     OW93386   2.431   5.392   5.825
30460SOL    HW193387   2.399   5.480   5.844
30460SOL    HW293388   2.450   5.354   5.911
30461SOL     OW93389   8.396   4.698   6.633
30461SOL    HW193390   8.390   4.786   6.596
30461SOL    HW293391   8.309   4.681   6.668
30462SOL     OW93392   8.468   1.546   8.495
30462SOL    HW193393   8.376   1.528   8.515
30462SOL    HW293394   8.512   1.461   8.507
30463SOL     OW93395   9.134   3.357   1.204
30463SOL    HW193396   9.197   3.315   1.262
30463SOL    HW293397   9.051   3.351   1.251
30464SOL     OW93398   8.494   6.383   8.096
30464SOL    HW193399   8.452   6.311   8.047
30464SOL    HW293400   8.423   6.425   8.144
30465SOL     OW93401   9.305   5.872   8.133
30465SOL    HW193402   9.381   5.871   8.191
30465SOL    HW293403   9.296   5.963   8.106
30466SOL     OW93404   2.670   3.257   6.478
30466SOL    HW193405   2.658   3.265   6.572
30466SOL    HW293406   2.646   3.343   6.443
30467SOL     OW93407   9.947   9.712   5.197
30467SOL    HW193408   9.860   9.695   5.161
30467SOL    HW293409   9.938   9.794   5.245
30468SOL     OW93410   9.794   1.132   5.360
30468SOL    HW193411   9.751   1.133   5.445
30468SOL    HW293412   9.878   1.176   5.375
30469SOL     OW93413   4.529   4.286   2.531
30469SOL    HW193414   4.444   4.282   2.575
30469SOL    HW293415   4.507   4.292   2.438
30470SOL     OW93416  10.439   6.810   5.503
30470SOL    HW193417  10.463   6.815   5.410
30470SOL    HW293418  10.344   6.801   5.503
30471SOL     OW93419   6.608  10.958   4.031
30471SOL    HW193420   6.678  11.023   4.038
30471SOL    HW293421   6.531  11.009   4.004
30472SOL     OW93422   6.670   4.356   7.765
30472SOL    HW193423   6.718   4.373   7.846
30472SOL    HW293424   6.728   4.389   7.696
30473SOL     OW93425   7.517   5.425  10.087
30473SOL    HW193426   7.567   5.345  10.104
30473SOL    HW293427   7.565   5.468  10.016
30474SOL     OW93428  10.731   2.084   2.931
30474SOL    HW193429  10.646   2.062   2.894
30474SOL    HW293430  10.794   2.056   2.864
30475SOL     OW93431   5.018   0.548  11.067
30475SOL    HW193432   4.984   0.626  11.024
30475SOL    HW293433   5.083   0.581  11.129
30476SOL     OW93434   1.658   2.924   9.152
30476SOL    HW193435   1.735   2.876   9.121
30476SOL    HW293436   1.653   2.904   9.245
30477SOL     OW93437   7.332   4.188   3.394
30477SOL    HW193438   7.300   4.155   3.478
30477SOL    HW293439   7.314   4.117   3.332
30478SOL     OW93440   8.236   4.282  10.246
30478SOL    HW193441   8.297   4.355  10.236
30478SOL    HW293442   8.276   4.226  10.312
30479SOL     OW93443   9.880   2.668   9.699
30479SOL    HW193444   9.930   2.718   9.763
30479SOL    HW293445   9.904   2.577   9.715
30480SOL     OW93446   3.880  10.799   4.544
30480SOL    HW193447   3.826  10.734   4.588
30480SOL    HW293448   3.854  10.794   4.452
30481SOL     OW93449   8.847   9.990   7.855
30481SOL    HW193450   8.837  10.053   7.925
30481SOL    HW293451   8.763   9.992   7.808
30482SOL     OW93452   5.704   5.265   4.513
30482SOL    HW193453   5.782   5.306   4.550
30482SOL    HW293454   5.736   5.184   4.473
30483SOL     OW93455  11.008   3.641   7.682
30483SOL    HW193456  10.916   3.644   7.657
30483SOL    HW293457  11.049   3.588   7.614
30484SOL     OW93458   4.529   5.415   4.585
30484SOL    HW193459   4.530   5.510   4.575
30484SOL    HW293460   4.577   5.398   4.666
30485SOL     OW93461   7.920   2.014   2.684
30485SOL    HW193462   7.963   2.088   2.727
30485SOL    HW293463   7.977   1.939   2.702
30486SOL     OW93464   0.586   4.609   1.209
30486SOL    HW193465   0.651   4.633   1.275
30486SOL    HW293466   0.570   4.515   1.224
30487SOL     OW93467   4.487   5.052   4.598
30487SOL    HW193468   4.557   5.110   4.628
30487SOL    HW293469   4.465   4.999   4.674
30488SOL     OW93470   7.071  10.537   5.616
30488SOL    HW193471   7.123  10.545   5.536
30488SOL    HW293472   7.136  10.528   5.686
30489SOL     OW93473   8.104   1.671   5.587
30489SOL    HW193474   8.052   1.676   5.507
30489SOL    HW293475   8.043   1.640   5.653
30490SOL     OW93476   7.459   3.105   0.474
30490SOL    HW193477   7.410   3.085   0.394
30490SOL    HW293478   7.495   3.021   0.502
30491SOL     OW93479   1.422   1.937   4.889
30491SOL    HW193480   1.493   1.992   4.923
30491SOL    HW293481   1.453   1.847   4.902
30492SOL     OW93482   9.084   4.092   6.590
30492SOL    HW193483   9.065   4.098   6.496
30492SOL    HW293484   9.156   4.029   6.596
30493SOL     OW93485   4.304  10.337   7.858
30493SOL    HW193486   4.323  10.326   7.951
30493SOL    HW293487   4.343  10.259   7.817
30494SOL     OW93488   6.543   1.047   2.127
30494SOL    HW193489   6.551   0.979   2.194
30494SOL    HW293490   6.466   1.021   2.076
30495SOL     OW93491   5.995   6.688   5.779
30495SOL    HW193492   5.953   6.653   5.700
30495SOL    HW293493   6.081   6.718   5.749
30496SOL     OW93494   1.788   8.497  10.186
30496SOL    HW193495   1.768   8.403  10.185
30496SOL    HW293496   1.788   8.521  10.278
30497SOL     OW93497   0.644  10.878   8.339
30497SOL    HW193498   0.690  10.794   8.342
30497SOL    HW293499   0.552  10.854   8.326
30498SOL     OW93500   4.157   3.043   3.048
30498SOL    HW193501   4.123   3.000   3.126
30498SOL    HW293502   4.250   3.057   3.066
30499SOL     OW93503   9.003   0.472   3.301
30499SOL    HW193504   8.929   0.434   3.253
30499SOL    HW293505   8.971   0.483   3.390
30500SOL     OW93506   3.521   3.403   7.805
30500SOL    HW193507   3.523   3.482   7.858
30500SOL    HW293508   3.498   3.333   7.866
30501SOL     OW93509   0.538   1.927   8.571
30501SOL    HW193510   0.603   1.874   8.524
30501SOL    HW293511   0.554   2.016   8.541
30502SOL     OW93512   7.986   2.640   1.524
30502SOL    HW193513   7.945   2.588   1.593
30502SOL    HW293514   7.977   2.731   1.552
30503SOL     OW93515   4.031   3.695   5.840
30503SOL    HW193516   4.008   3.787   5.847
30503SOL    HW293517   3.989   3.653   5.915
30504SOL     OW93518   2.602   5.362   2.064
30504SOL    HW193519   2.613   5.442   2.115
30504SOL    HW293520   2.654   5.296   2.110
30505SOL     OW93521   4.358   6.384   9.504
30505SOL    HW193522   4.377   6.416   9.416
30505SOL    HW293523   4.393   6.451   9.562
30506SOL     OW93524  10.873  10.050   6.831
30506SOL    HW193525  10.858  10.142   6.852
30506SOL    HW293526  10.814  10.032   6.757
30507SOL     OW93527   8.972   7.456   1.162
30507SOL    HW193528   9.025   7.502   1.097
30507SOL    HW293529   8.884   7.490   1.149
30508SOL     OW93530   4.637  10.148   2.712
30508SOL    HW193531   4.574  10.196   2.766
30508SOL    HW293532   4.583  10.094   2.654
30509SOL     OW93533   1.844   2.608   7.716
30509SOL    HW193534   1.832   2.519   7.751
30509SOL    HW293535   1.756   2.636   7.692
30510SOL     OW93536   2.850   7.367   9.672
30510SOL    HW193537   2.908   7.415   9.731
30510SOL    HW293538   2.857   7.413   9.588
30511SOL     OW93539   5.581   3.988   3.474
30511SOL    HW193540   5.564   4.073   3.513
30511SOL    HW293541   5.604   3.931   3.547
30512SOL     OW93542   5.339   3.193   4.056
30512SOL    HW193543   5.246   3.175   4.072
30512SOL    HW293544   5.380   3.106   4.053
30513SOL     OW93545   4.401  10.404   3.509
30513SOL    HW193546   4.447  10.338   3.457
30513SOL    HW293547   4.399  10.481   3.453
30514SOL     OW93548   5.444  10.345   4.404
30514SOL    HW193549   5.537  10.363   4.418
30514SOL    HW293550   5.427  10.266   4.456
30515SOL     OW93551   8.430   9.585   4.248
30515SOL    HW193552   8.453   9.600   4.339
30515SOL    HW293553   8.415   9.490   4.242
30516SOL     OW93554   9.976   2.960   5.538
30516SOL    HW193555  10.039   2.962   5.466
30516SOL    HW293556   9.891   2.948   5.495
30517SOL     OW93557  10.072   0.579   9.197
30517SOL    HW193558  10.031   0.543   9.275
30517SOL    HW293559  10.125   0.507   9.162
30518SOL     OW93560   5.792  11.010   1.469
30518SOL    HW193561   5.717  10.952   1.480
30518SOL    HW293562   5.755  11.098   1.472
30519SOL     OW93563   4.103   3.495   5.172
30519SOL    HW193564   4.178   3.548   5.198
30519SOL    HW293565   4.064   3.542   5.098
30520SOL     OW93566   1.025   7.067   6.277
30520SOL    HW193567   0.958   7.017   6.324
30520SOL    HW293568   0.991   7.156   6.273
30521SOL     OW93569   6.295   3.409   8.710
30521SOL    HW193570   6.316   3.502   8.706
30521SOL    HW293571   6.306   3.386   8.802
30522SOL     OW93572   5.784   1.069   9.006
30522SOL    HW193573   5.821   0.992   8.963
30522SOL    HW293574   5.859   1.112   9.047
30523SOL     OW93575   9.901   5.956   7.458
30523SOL    HW193576   9.834   5.923   7.398
30523SOL    HW293577   9.883   6.049   7.465
30524SOL     OW93578  10.486   0.995   0.655
30524SOL    HW193579  10.417   1.058   0.634
30524SOL    HW293580  10.565   1.030   0.613
30525SOL     OW93581   1.626   0.224   2.521
30525SOL    HW193582   1.572   0.184   2.452
30525SOL    HW293583   1.715   0.223   2.485
30526SOL     OW93584   3.213   1.161   6.371
30526SOL    HW193585   3.284   1.194   6.426
30526SOL    HW293586   3.177   1.239   6.329
30527SOL     OW93587   7.287   6.736   5.467
30527SOL    HW193588   7.366   6.685   5.448
30527SOL    HW293589   7.227   6.712   5.396
30528SOL     OW93590   8.537   6.842   0.514
30528SOL    HW193591   8.585   6.798   0.584
30528SOL    HW293592   8.458   6.789   0.503
30529SOL     OW93593   3.169  10.586   5.388
30529SOL    HW193594   3.172  10.600   5.482
30529SOL    HW293595   3.077  10.571   5.369
30530SOL     OW93596   8.465   7.363   0.613
30530SOL    HW193597   8.482   7.275   0.579
30530SOL    HW293598   8.526   7.419   0.565
30531SOL     OW93599   0.440  10.320   7.471
30531SOL    HW193600   0.448  10.323   7.566
30531SOL    HW293601   0.480  10.236   7.446
30532SOL     OW93602   8.039   9.709   2.283
30532SOL    HW193603   8.086   9.694   2.201
30532SOL    HW293604   8.107   9.730   2.346
30533SOL     OW93605   1.406  10.531   0.759
30533SOL    HW193606   1.381  10.440   0.772
30533SOL    HW293607   1.400  10.544   0.664
30534SOL     OW93608   7.069   7.694   1.899
30534SOL    HW193609   7.095   7.780   1.866
30534SOL    HW293610   7.070   7.637   1.821
30535SOL     OW93611   8.249   3.801   1.395
30535SOL    HW193612   8.233   3.711   1.367
30535SOL    HW293613   8.191   3.854   1.340
30536SOL     OW93614   6.964   3.170  10.650
30536SOL    HW193615   7.051   3.154  10.686
30536SOL    HW293616   6.919   3.222  10.716
30537SOL     OW93617   1.270  10.047   5.073
30537SOL    HW193618   1.287  10.107   5.145
30537SOL    HW293619   1.304  10.091   4.995
30538SOL     OW93620   2.234  10.701   8.790
30538SOL    HW193621   2.306  10.757   8.759
30538SOL    HW293622   2.269  10.658   8.868
30539SOL     OW93623   9.078   3.067   9.318
30539SOL    HW193624   9.099   2.977   9.291
30539SOL    HW293625   9.135   3.083   9.393
30540SOL     OW93626   1.455   3.863  10.044
30540SOL    HW193627   1.543   3.840  10.012
30540SOL    HW293628   1.398   3.845   9.969
30541SOL     OW93629   8.268   8.788   2.437
30541SOL    HW193630   8.292   8.770   2.528
30541SOL    HW293631   8.335   8.744   2.385
30542SOL     OW93632   1.691   2.335   1.869
30542SOL    HW193633   1.613   2.289   1.899
30542SOL    HW293634   1.739   2.269   1.818
30543SOL     OW93635   9.416   9.803   5.351
30543SOL    HW193636   9.344   9.782   5.292
30543SOL    HW293637   9.377   9.859   5.418
30544SOL     OW93638   2.152   1.649   5.330
30544SOL    HW193639   2.144   1.717   5.264
30544SOL    HW293640   2.167   1.569   5.279
30545SOL     OW93641   4.281  11.050   9.407
30545SOL    HW193642   4.223  11.032   9.333
30545SOL    HW293643   4.231  11.109   9.463
30546SOL     OW93644   6.302   1.814   1.021
30546SOL    HW193645   6.248   1.740   1.048
30546SOL    HW293646   6.324   1.859   1.102
30547SOL     OW93647   1.188   8.951   1.925
30547SOL    HW193648   1.141   8.919   1.848
30547SOL    HW293649   1.207   8.872   1.976
30548SOL     OW93650   0.003  10.772   2.216
30548SOL    HW193651  -0.033  10.858   2.236
30548SOL    HW293652   0.067  10.788   2.147
30549SOL     OW93653   7.709  10.355   1.413
30549SOL    HW193654   7.676  10.427   1.467
30549SOL    HW293655   7.772  10.396   1.353
30550SOL     OW93656   8.550   7.045   2.059
30550SOL    HW193657   8.493   6.988   2.006
30550SOL    HW293658   8.560   6.998   2.142
30551SOL     OW93659   4.369  10.753   3.118
30551SOL    HW193660   4.303  10.795   3.173
30551SOL    HW293661   4.366  10.801   3.035
30552SOL     OW93662  10.698   3.781   6.443
30552SOL    HW193663  10.764   3.850   6.448
30552SOL    HW293664  10.695   3.744   6.531
30553SOL     OW93665   8.526   6.188   8.930
30553SOL    HW193666   8.584   6.263   8.943
30553SOL    HW293667   8.578   6.126   8.879
30554SOL     OW93668   3.465   1.954   8.643
30554SOL    HW193669   3.522   1.925   8.572
30554SOL    HW293670   3.489   2.045   8.657
30555SOL     OW93671  10.017   3.437   4.524
30555SOL    HW193672  10.057   3.353   4.500
30555SOL    HW293673  10.079   3.477   4.585
30556SOL     OW93674  10.996   1.896   4.813
30556SOL    HW193675  10.923   1.928   4.760
30556SOL    HW293676  10.980   1.802   4.821
30557SOL     OW93677   5.054   5.187   2.440
30557SOL    HW193678   5.013   5.271   2.458
30557SOL    HW293679   4.993   5.122   2.475
30558SOL     OW93680   4.929   1.719   3.848
30558SOL    HW193681   4.913   1.727   3.754
30558SOL    HW293682   4.965   1.631   3.858
30559SOL     OW93683   8.600  10.438   6.533
30559SOL    HW193684   8.667  10.377   6.565
30559SOL    HW293685   8.641  10.480   6.457
30560SOL     OW93686  10.239  10.014   2.999
30560SOL    HW193687  10.316  10.036   3.051
30560SOL    HW293688  10.198   9.941   3.046
30561SOL     OW93689   5.794   3.195   9.870
30561SOL    HW193690   5.844   3.139   9.811
30561SOL    HW293691   5.848   3.201   9.949
30562SOL     OW93692   2.082   4.014  10.431
30562SOL    HW193693   2.069   4.101  10.394
30562SOL    HW293694   2.176   3.997  10.420
30563SOL     OW93695   4.067   2.544   6.457
30563SOL    HW193696   4.041   2.581   6.372
30563SOL    HW293697   4.044   2.611   6.521
30564SOL     OW93698   0.550  10.739   4.133
30564SOL    HW193699   0.481  10.689   4.176
30564SOL    HW293700   0.567  10.691   4.052
30565SOL     OW93701   6.479   2.199   8.626
30565SOL    HW193702   6.420   2.224   8.555
30565SOL    HW293703   6.546   2.267   8.626
30566SOL     OW93704   0.139   5.664  10.756
30566SOL    HW193705   0.201   5.698  10.820
30566SOL    HW293706   0.142   5.727  10.684
30567SOL     OW93707   2.942   0.447   7.471
30567SOL    HW193708   3.000   0.422   7.399
30567SOL    HW293709   2.985   0.522   7.512
30568SOL     OW93710   8.568   9.109   8.131
30568SOL    HW193711   8.543   9.017   8.124
30568SOL    HW293712   8.648   9.108   8.184
30569SOL     OW93713   2.896   3.500   1.132
30569SOL    HW193714   2.934   3.419   1.098
30569SOL    HW293715   2.954   3.569   1.100
30570SOL     OW93716   7.326   2.561   8.396
30570SOL    HW193717   7.354   2.569   8.305
30570SOL    HW293718   7.319   2.651   8.427
30571SOL     OW93719   0.209   0.077   5.135
30571SOL    HW193720   0.188   0.145   5.198
30571SOL    HW293721   0.211   0.122   5.050
30572SOL     OW93722  10.284   0.482   5.328
30572SOL    HW193723  10.227   0.421   5.280
30572SOL    HW293724  10.231   0.510   5.402
30573SOL     OW93725   9.327   7.487   4.151
30573SOL    HW193726   9.295   7.572   4.121
30573SOL    HW293727   9.345   7.500   4.244
30574SOL     OW93728  10.818   4.347   8.223
30574SOL    HW193729  10.816   4.427   8.170
30574SOL    HW293730  10.830   4.276   8.159
30575SOL     OW93731   1.884   3.460   7.616
30575SOL    HW193732   1.842   3.378   7.644
30575SOL    HW293733   1.976   3.436   7.604
30576SOL     OW93734   3.682   1.698   0.261
30576SOL    HW193735   3.774   1.671   0.254
30576SOL    HW293736   3.650   1.698   0.170
30577SOL     OW93737   1.613   2.637   1.996
30577SOL    HW193738   1.533   2.682   1.971
30577SOL    HW293739   1.615   2.643   2.091
30578SOL     OW93740   4.414   9.675   5.992
30578SOL    HW193741   4.328   9.637   5.976
30578SOL    HW293742   4.399   9.744   6.056
30579SOL     OW93743  10.003   7.610   7.733
30579SOL    HW193744   9.929   7.630   7.675
30579SOL    HW293745  10.037   7.527   7.699
30580SOL     OW93746   6.173  10.470   0.898
30580SOL    HW193747   6.142  10.544   0.951
30580SOL    HW293748   6.188  10.507   0.811
30581SOL     OW93749   4.944   4.534   4.789
30581SOL    HW193750   4.887   4.593   4.740
30581SOL    HW293751   4.886   4.465   4.820
30582SOL     OW93752   2.986   2.638   1.900
30582SOL    HW193753   2.948   2.648   1.987
30582SOL    HW293754   3.068   2.687   1.903
30583SOL     OW93755   6.781  10.699   3.375
30583SOL    HW193756   6.726  10.759   3.426
30583SOL    HW293757   6.870  10.734   3.384
30584SOL     OW93758   6.380   0.193  10.076
30584SOL    HW193759   6.449   0.142  10.119
30584SOL    HW293760   6.420   0.278  10.058
30585SOL     OW93761   5.588   8.544   5.160
30585SOL    HW193762   5.504   8.582   5.184
30585SOL    HW293763   5.606   8.480   5.229
30586SOL     OW93764   3.264   3.594   2.906
30586SOL    HW193765   3.251   3.587   3.000
30586SOL    HW293766   3.209   3.525   2.869
30587SOL     OW93767   6.171   3.822   4.466
30587SOL    HW193768   6.127   3.902   4.495
30587SOL    HW293769   6.102   3.772   4.422
30588SOL     OW93770   7.145   0.442  10.892
30588SOL    HW193771   7.174   0.531  10.912
30588SOL    HW293772   7.215   0.385  10.925
30589SOL     OW93773   9.763   9.111  10.367
30589SOL    HW193774   9.853   9.142  10.355
30589SOL    HW293775   9.766   9.061  10.448
30590SOL     OW93776   5.947   0.174   1.930
30590SOL    HW193777   6.016   0.108   1.939
30590SOL    HW293778   5.899   0.170   2.012
30591SOL     OW93779   2.705   8.075   2.941
30591SOL    HW193780   2.677   7.993   2.982
30591SOL    HW293781   2.783   8.051   2.891
30592SOL     OW93782   1.736   0.754   4.165
30592SOL    HW193783   1.827   0.723   4.168
30592SOL    HW293784   1.710   0.742   4.073
30593SOL     OW93785   8.210   1.848   1.206
30593SOL    HW193786   8.216   1.822   1.298
30593SOL    HW293787   8.296   1.827   1.169
30594SOL     OW93788   5.530   1.088   2.315
30594SOL    HW193789   5.582   1.147   2.369
30594SOL    HW293790   5.468   1.048   2.376
30595SOL     OW93791   1.172   8.626   7.857
30595SOL    HW193792   1.223   8.545   7.851
30595SOL    HW293793   1.084   8.601   7.830
30596SOL     OW93794   6.463   0.916   1.302
30596SOL    HW193795   6.375   0.883   1.317
30596SOL    HW293796   6.474   0.987   1.364
30597SOL     OW93797   8.599   2.491   2.828
30597SOL    HW193798   8.640   2.444   2.901
30597SOL    HW293799   8.582   2.423   2.763
30598SOL     OW93800   2.181   4.264   1.410
30598SOL    HW193801   2.129   4.339   1.382
30598SOL    HW293802   2.151   4.246   1.499
30599SOL     OW93803   9.904   0.008   0.400
30599SOL    HW193804   9.939   0.043   0.318
30599SOL    HW293805   9.825  -0.039   0.374
30600SOL     OW93806  10.391   1.970   9.334
30600SOL    HW193807  10.407   1.987   9.427
30600SOL    HW293808  10.301   1.998   9.320
30601SOL     OW93809   9.456   2.670   0.557
30601SOL    HW193810   9.391   2.613   0.598
30601SOL    HW293811   9.425   2.681   0.467
30602SOL     OW93812   4.927   5.812   9.881
30602SOL    HW193813   4.918   5.856   9.965
30602SOL    HW293814   5.014   5.837   9.850
30603SOL     OW93815   7.656   3.537   2.554
30603SOL    HW193816   7.655   3.623   2.596
30603SOL    HW293817   7.738   3.497   2.583
30604SOL     OW93818   4.031   0.745   4.348
30604SOL    HW193819   4.003   0.752   4.256
30604SOL    HW293820   3.952   0.764   4.399
30605SOL     OW93821   2.690   4.025   5.447
30605SOL    HW193822   2.635   4.103   5.449
30605SOL    HW293823   2.643   3.964   5.390
30606SOL     OW93824   0.822   1.687   3.447
30606SOL    HW193825   0.873   1.755   3.491
30606SOL    HW293826   0.732   1.701   3.477
30607SOL     OW93827   1.149   8.127   3.466
30607SOL    HW193828   1.066   8.152   3.426
30607SOL    HW293829   1.203   8.098   3.392
30608SOL     OW93830   7.694  10.136   3.775
30608SOL    HW193831   7.706  10.094   3.860
30608SOL    HW293832   7.782  10.136   3.736
30609SOL     OW93833   7.082   0.343  10.385
30609SOL    HW193834   7.135   0.266  10.406
30609SOL    HW293835   7.124   0.381  10.308
30610SOL     OW93836   7.100   0.061   5.709
30610SOL    HW193837   7.165   0.052   5.778
30610SOL    HW293838   7.064  -0.028   5.698
30611SOL     OW93839   9.554   8.455   9.685
30611SOL    HW193840   9.473   8.449   9.735
30611SOL    HW293841   9.527   8.441   9.594
30612SOL     OW93842   1.891   2.202   7.350
30612SOL    HW193843   1.901   2.108   7.368
30612SOL    HW293844   1.958   2.221   7.284
30613SOL     OW93845  10.856  10.781   8.166
30613SOL    HW193846  10.921  10.711   8.166
30613SOL    HW293847  10.811  10.772   8.082
30614SOL     OW93848   0.556   3.565  11.050
30614SOL    HW193849   0.495   3.567  10.976
30614SOL    HW293850   0.503   3.534  11.123
30615SOL     OW93851   5.650   6.215   1.177
30615SOL    HW193852   5.607   6.254   1.253
30615SOL    HW293853   5.734   6.261   1.170
30616SOL     OW93854   1.484   1.927   7.531
30616SOL    HW193855   1.469   1.970   7.447
30616SOL    HW293856   1.569   1.959   7.560
30617SOL     OW93857   3.038   2.274   8.867
30617SOL    HW193858   3.010   2.244   8.953
30617SOL    HW293859   3.002   2.209   8.806
30618SOL     OW93860   9.375   2.671  10.505
30618SOL    HW193861   9.281   2.680  10.520
30618SOL    HW293862   9.385   2.583  10.469
30619SOL     OW93863   5.954   4.863   1.833
30619SOL    HW193864   5.885   4.915   1.874
30619SOL    HW293865   5.972   4.792   1.895
30620SOL     OW93866   4.207   9.948   5.776
30620SOL    HW193867   4.116   9.920   5.778
30620SOL    HW293868   4.251   9.881   5.723
30621SOL     OW93869   8.328   5.265  10.911
30621SOL    HW193870   8.289   5.228  10.832
30621SOL    HW293871   8.330   5.192  10.973
30622SOL     OW93872   7.711   3.108   6.864
30622SOL    HW193873   7.716   3.018   6.831
30622SOL    HW293874   7.788   3.151   6.826
30623SOL     OW93875  10.693   2.139   0.646
30623SOL    HW193876  10.763   2.140   0.711
30623SOL    HW293877  10.670   2.046   0.637
30624SOL     OW93878   4.549   1.727   5.557
30624SOL    HW193879   4.557   1.733   5.652
30624SOL    HW293880   4.536   1.633   5.540
30625SOL     OW93881   9.713   3.434   7.971
30625SOL    HW193882   9.638   3.472   7.925
30625SOL    HW293883   9.690   3.341   7.982
30626SOL     OW93884   4.842   9.925   5.754
30626SOL    HW193885   4.930   9.891   5.772
30626SOL    HW293886   4.786   9.847   5.757
30627SOL     OW93887  10.305   2.841   5.002
30627SOL    HW193888  10.342   2.797   4.925
30627SOL    HW293889  10.306   2.774   5.071
30628SOL     OW93890   8.536   9.759   2.813
30628SOL    HW193891   8.520   9.754   2.718
30628SOL    HW293892   8.603   9.827   2.822
30629SOL     OW93893   2.147  10.068   5.843
30629SOL    HW193894   2.136  10.162   5.831
30629SOL    HW293895   2.213  10.059   5.912
30630SOL     OW93896   5.786   0.468   4.911
30630SOL    HW193897   5.748   0.506   4.990
30630SOL    HW293898   5.793   0.374   4.930
30631SOL     OW93899   4.897   9.471   7.956
30631SOL    HW193900   4.941   9.404   7.903
30631SOL    HW293901   4.809   9.436   7.970
30632SOL     OW93902   4.195   1.410   3.812
30632SOL    HW193903   4.241   1.327   3.824
30632SOL    HW293904   4.233   1.447   3.732
30633SOL     OW93905   4.290   2.988   5.344
30633SOL    HW193906   4.226   3.057   5.359
30633SOL    HW293907   4.285   2.971   5.250
30634SOL     OW93908   8.186  10.347   2.644
30634SOL    HW193909   8.169  10.411   2.712
30634SOL    HW293910   8.123  10.368   2.575
30635SOL     OW93911   5.845  10.692   2.103
30635SOL    HW193912   5.881  10.615   2.059
30635SOL    HW293913   5.901  10.764   2.074
30636SOL     OW93914   7.717   1.922   2.814
30636SOL    HW193915   7.668   1.967   2.745
30636SOL    HW293916   7.808   1.924   2.784
30637SOL     OW93917   8.854   3.623   2.914
30637SOL    HW193918   8.865   3.550   2.853
30637SOL    HW293919   8.927   3.614   2.975
30638SOL     OW93920   3.566   7.395   3.946
30638SOL    HW193921   3.504   7.419   4.015
30638SOL    HW293922   3.651   7.389   3.990
30639SOL     OW93923   9.400   8.585   1.313
30639SOL    HW193924   9.406   8.679   1.299
30639SOL    HW293925   9.374   8.575   1.404
30640SOL     OW93926   4.364  10.979   7.277
30640SOL    HW193927   4.336  11.009   7.190
30640SOL    HW293928   4.328  10.890   7.284
30641SOL     OW93929   1.176   2.765   6.363
30641SOL    HW193930   1.087   2.799   6.376
30641SOL    HW293931   1.224   2.794   6.440
30642SOL     OW93932   4.460   2.765   6.369
30642SOL    HW193933   4.525   2.740   6.303
30642SOL    HW293934   4.379   2.778   6.319
30643SOL     OW93935  10.327   1.369   7.393
30643SOL    HW193936  10.364   1.287   7.358
30643SOL    HW293937  10.276   1.404   7.320
30644SOL     OW93938   3.390   9.849   3.772
30644SOL    HW193939   3.374   9.848   3.677
30644SOL    HW293940   3.400   9.941   3.794
30645SOL     OW93941   7.080   0.938   0.861
30645SOL    HW193942   7.123   0.871   0.915
30645SOL    HW293943   7.043   0.888   0.788
30646SOL     OW93944   3.366  10.788   2.499
30646SOL    HW193945   3.314  10.742   2.433
30646SOL    HW293946   3.357  10.736   2.578
30647SOL     OW93947   9.022   0.399   3.898
30647SOL    HW193948   9.061   0.403   3.985
30647SOL    HW293949   9.070   0.329   3.853
30648SOL     OW93950   5.747   4.839   0.443
30648SOL    HW193951   5.664   4.844   0.396
30648SOL    HW293952   5.796   4.771   0.397
30649SOL     OW93953   4.366   8.565   4.550
30649SOL    HW193954   4.413   8.495   4.595
30649SOL    HW293955   4.435   8.617   4.508
30650SOL     OW93956   0.695   0.482  11.074
30650SOL    HW193957   0.762   0.492  11.006
30650SOL    HW293958   0.699   0.389  11.098
30651SOL     OW93959   5.510   1.283   9.503
30651SOL    HW193960   5.538   1.200   9.464
30651SOL    HW293961   5.479   1.259   9.590
30652SOL     OW93962  10.333  10.689   0.260
30652SOL    HW193963  10.406  10.707   0.319
30652SOL    HW293964  10.263  10.747   0.290
30653SOL     OW93965   0.159   0.252   4.916
30653SOL    HW193966   0.083   0.275   4.863
30653SOL    HW293967   0.232   0.299   4.875
30654SOL     OW93968   4.673   1.622   6.606
30654SOL    HW193969   4.671   1.626   6.510
30654SOL    HW293970   4.654   1.530   6.626
30655SOL     OW93971   8.423  10.578   4.157
30655SOL    HW193972   8.463  10.634   4.223
30655SOL    HW293973   8.329  10.585   4.173
30656SOL     OW93974   7.987   6.896   5.559
30656SOL    HW193975   7.968   6.835   5.630
30656SOL    HW293976   8.023   6.973   5.602
30657SOL     OW93977   9.044   4.013   9.641
30657SOL    HW193978   8.964   3.988   9.595
30657SOL    HW293979   9.097   4.056   9.574
30658SOL     OW93980   7.183   1.523   5.861
30658SOL    HW193981   7.094   1.534   5.893
30658SOL    HW293982   7.232   1.595   5.900
30659SOL     OW93983   7.549   8.539   5.143
30659SOL    HW193984   7.469   8.488   5.158
30659SOL    HW293985   7.541   8.614   5.201
30660SOL     OW93986   3.872  10.931   2.099
30660SOL    HW193987   3.955  10.887   2.117
30660SOL    HW293988   3.893  11.024   2.104
30661SOL     OW93989  10.130   4.835   4.056
30661SOL    HW193990  10.200   4.895   4.032
30661SOL    HW293991  10.168   4.748   4.042
30662SOL     OW93992  10.004   9.257   1.550
30662SOL    HW193993  10.076   9.304   1.591
30662SOL    HW293994   9.988   9.304   1.468
30663SOL     OW93995   3.863   2.631   0.043
30663SOL    HW193996   3.888   2.578  -0.032
30663SOL    HW293997   3.788   2.682   0.014
30664SOL     OW93998  10.375   4.788   8.933
30664SOL    HW193999  10.452   4.790   8.876
30664SOL    HW294000  10.332   4.705   8.911
30665SOL     OW94001   8.144   5.216   6.489
30665SOL    HW194002   8.112   5.305   6.497
30665SOL    HW294003   8.087   5.176   6.423
30666SOL     OW94004   5.237   0.417   4.361
30666SOL    HW194005   5.274   0.505   4.362
30666SOL    HW294006   5.221   0.399   4.268
30667SOL     OW94007   2.204   8.801   7.726
30667SOL    HW194008   2.163   8.826   7.808
30667SOL    HW294009   2.235   8.711   7.740
30668SOL     OW94010  10.951   0.122   1.116
30668SOL    HW194011  10.972   0.032   1.089
30668SOL    HW294012  10.866   0.139   1.076
30669SOL     OW94013   1.386   9.619   9.468
30669SOL    HW194014   1.456   9.649   9.525
30669SOL    HW294015   1.306   9.645   9.513
30670SOL     OW94016   7.925   7.095   8.237
30670SOL    HW194017   8.004   7.122   8.284
30670SOL    HW294018   7.878   7.039   8.299
30671SOL     OW94019   4.548   0.520   3.404
30671SOL    HW194020   4.464   0.484   3.434
30671SOL    HW294021   4.570   0.588   3.468
30672SOL     OW94022   0.950   5.395   4.853
30672SOL    HW194023   0.924   5.340   4.779
30672SOL    HW294024   0.977   5.332   4.920
30673SOL     OW94025   3.995   0.289   5.296
30673SOL    HW194026   3.907   0.324   5.285
30673SOL    HW294027   4.026   0.274   5.206
30674SOL     OW94028   2.156   6.275   4.021
30674SOL    HW194029   2.202   6.255   4.102
30674SOL    HW294030   2.212   6.237   3.952
30675SOL     OW94031   2.188   7.128   8.578
30675SOL    HW194032   2.182   7.190   8.650
30675SOL    HW294033   2.233   7.176   8.508
30676SOL     OW94034   5.564   1.305   6.388
30676SOL    HW194035   5.520   1.268   6.311
30676SOL    HW294036   5.606   1.385   6.356
30677SOL     OW94037  10.427   4.599   3.524
30677SOL    HW194038  10.501   4.538   3.518
30677SOL    HW294039  10.458   4.679   3.481
30678SOL     OW94040   3.302   6.348   3.594
30678SOL    HW194041   3.325   6.340   3.686
30678SOL    HW294042   3.345   6.272   3.553
30679SOL     OW94043   5.155   2.367   8.197
30679SOL    HW194044   5.133   2.286   8.150
30679SOL    HW294045   5.101   2.364   8.275
30680SOL     OW94046   4.388   3.344   5.287
30680SOL    HW194047   4.350   3.333   5.199
30680SOL    HW294048   4.323   3.395   5.335
30681SOL     OW94049   7.404   1.475   4.292
30681SOL    HW194050   7.348   1.439   4.361
30681SOL    HW294051   7.490   1.483   4.332
30682SOL     OW94052   1.006   1.583  10.608
30682SOL    HW194053   1.100   1.601  10.601
30682SOL    HW294054   0.981   1.620  10.692
30683SOL     OW94055  11.003   1.709   2.784
30683SOL    HW194056  10.967   1.795   2.765
30683SOL    HW294057  10.933   1.648   2.760
30684SOL     OW94058   5.506   1.838   6.892
30684SOL    HW194059   5.587   1.861   6.936
30684SOL    HW294060   5.529   1.836   6.799
30685SOL     OW94061   3.335   2.425   3.440
30685SOL    HW194062   3.247   2.412   3.406
30685SOL    HW294063   3.322   2.450   3.531
30686SOL     OW94064   8.044   1.642   8.291
30686SOL    HW194065   8.042   1.727   8.333
30686SOL    HW294066   7.952   1.619   8.280
30687SOL     OW94067   6.090   8.127   7.362
30687SOL    HW194068   6.112   8.065   7.292
30687SOL    HW294069   6.101   8.213   7.322
30688SOL     OW94070   9.393  10.037   8.185
30688SOL    HW194071   9.403  10.116   8.132
30688SOL    HW294072   9.339   9.979   8.131
30689SOL     OW94073   7.283   9.256  10.894
30689SOL    HW194074   7.194   9.285  10.877
30689SOL    HW294075   7.293   9.177  10.841
30690SOL     OW94076   0.606   3.330   6.841
30690SOL    HW194077   0.529   3.382   6.819
30690SOL    HW294078   0.592   3.303   6.931
30691SOL     OW94079   3.413   2.981  10.197
30691SOL    HW194080   3.485   2.919  10.212
30691SOL    HW294081   3.336   2.936  10.232
30692SOL     OW94082   8.619   3.890   0.318
30692SOL    HW194083   8.644   3.966   0.266
30692SOL    HW294084   8.549   3.848   0.267
30693SOL     OW94085   6.485   2.873   2.269
30693SOL    HW194086   6.444   2.904   2.188
30693SOL    HW294087   6.422   2.893   2.338
30694SOL     OW94088   2.489   7.486   4.193
30694SOL    HW194089   2.505   7.579   4.203
30694SOL    HW294090   2.565   7.444   4.234
30695SOL     OW94091   1.899   4.548   0.434
30695SOL    HW194092   1.935   4.620   0.485
30695SOL    HW294093   1.891   4.583   0.345
30696SOL     OW94094   6.417   3.652   8.775
30696SOL    HW194095   6.456   3.691   8.853
30696SOL    HW294096   6.426   3.719   8.707
30697SOL     OW94097   9.660   1.118   7.278
30697SOL    HW194098   9.637   1.200   7.235
30697SOL    HW294099   9.742   1.136   7.323
30698SOL     OW94100   6.208   4.301   7.678
30698SOL    HW194101   6.274   4.355   7.721
30698SOL    HW294102   6.257   4.226   7.643
30699SOL     OW94103   5.342   5.349   5.469
30699SOL    HW194104   5.422   5.335   5.520
30699SOL    HW294105   5.338   5.443   5.455
30700SOL     OW94106   1.182   0.214   0.161
30700SOL    HW194107   1.129   0.134   0.165
30700SOL    HW294108   1.260   0.188   0.112
30701SOL     OW94109   6.975   1.487   6.239
30701SOL    HW194110   6.907   1.454   6.180
30701SOL    HW294111   6.936   1.564   6.279
30702SOL     OW94112   1.816   9.651   2.212
30702SOL    HW194113   1.789   9.567   2.174
30702SOL    HW294114   1.873   9.690   2.146
30703SOL     OW94115   0.069   0.079   6.699
30703SOL    HW194116   0.095   0.075   6.607
30703SOL    HW294117   0.137   0.130   6.741
30704SOL     OW94118   7.502   8.532   6.355
30704SOL    HW194119   7.558   8.503   6.282
30704SOL    HW294120   7.473   8.619   6.329
30705SOL     OW94121  10.002   5.366   5.911
30705SOL    HW194122   9.920   5.332   5.875
30705SOL    HW294123  10.041   5.415   5.838
30706SOL     OW94124   7.456   4.333  10.765
30706SOL    HW194125   7.373   4.319  10.810
30706SOL    HW294126   7.492   4.245  10.754
30707SOL     OW94127   8.840   2.205   6.071
30707SOL    HW194128   8.924   2.248   6.086
30707SOL    HW294129   8.850   2.118   6.109
30708SOL     OW94130   4.384   3.858  10.425
30708SOL    HW194131   4.427   3.886  10.344
30708SOL    HW294132   4.291   3.871  10.408
30709SOL     OW94133   2.247   6.363   0.931
30709SOL    HW194134   2.156   6.335   0.937
30709SOL    HW294135   2.293   6.288   0.892
30710SOL     OW94136   1.050   6.330  10.596
30710SOL    HW194137   0.985   6.370  10.654
30710SOL    HW294138   1.126   6.388  10.601
30711SOL     OW94139   7.845  10.396   4.303
30711SOL    HW194140   7.761  10.373   4.342
30711SOL    HW294141   7.851  10.491   4.313
30712SOL     OW94142   8.038   0.542   3.245
30712SOL    HW194143   7.973   0.482   3.207
30712SOL    HW294144   8.040   0.520   3.338
30713SOL     OW94145   0.106   5.034   4.855
30713SOL    HW194146   0.122   5.096   4.926
30713SOL    HW294147   0.044   4.970   4.891
30714SOL     OW94148  10.929   5.295   0.671
30714SOL    HW194149  10.972   5.290   0.585
30714SOL    HW294150  10.852   5.350   0.656
30715SOL     OW94151   5.943   9.086   8.883
30715SOL    HW194152   6.018   9.122   8.930
30715SOL    HW294153   5.939   8.994   8.911
30716SOL     OW94154   2.161   8.901   5.471
30716SOL    HW194155   2.086   8.849   5.440
30716SOL    HW294156   2.234   8.871   5.417
30717SOL     OW94157   9.674   6.787   1.658
30717SOL    HW194158   9.722   6.716   1.701
30717SOL    HW294159   9.594   6.745   1.625
30718SOL     OW94160   8.968   1.683   3.855
30718SOL    HW194161   9.014   1.606   3.889
30718SOL    HW294162   9.038   1.741   3.825
30719SOL     OW94163   1.584   4.980   2.031
30719SOL    HW194164   1.666   5.023   2.005
30719SOL    HW294165   1.537   4.968   1.948
30720SOL     OW94166   9.606   1.573   5.795
30720SOL    HW194167   9.698   1.599   5.785
30720SOL    HW294168   9.556   1.644   5.755
30721SOL     OW94169   3.109   2.291   7.008
30721SOL    HW194170   3.039   2.306   6.944
30721SOL    HW294171   3.150   2.376   7.020
30722SOL     OW94172   3.857   3.465   1.663
30722SOL    HW194173   3.852   3.421   1.748
30722SOL    HW294174   3.948   3.496   1.657
30723SOL     OW94175   9.856   7.713  10.350
30723SOL    HW194176   9.786   7.732  10.287
30723SOL    HW294177   9.815   7.722  10.436
30724SOL     OW94178   9.513   7.487   1.725
30724SOL    HW194179   9.538   7.542   1.651
30724SOL    HW294180   9.447   7.538   1.772
30725SOL     OW94181   4.057   1.332   8.513
30725SOL    HW194182   3.972   1.375   8.501
30725SOL    HW294183   4.114   1.373   8.448
30726SOL     OW94184   0.522   3.757   7.859
30726SOL    HW194185   0.524   3.694   7.931
30726SOL    HW294186   0.443   3.808   7.874
30727SOL     OW94187  10.165   2.478   5.438
30727SOL    HW194188  10.157   2.401   5.494
30727SOL    HW294189  10.258   2.499   5.440
30728SOL     OW94190   9.751   3.603   0.095
30728SOL    HW194191   9.741   3.614   0.190
30728SOL    HW294192   9.844   3.585   0.083
30729SOL     OW94193   4.414   3.563   1.553
30729SOL    HW194194   4.480   3.565   1.623
30729SOL    HW294195   4.331   3.580   1.597
30730SOL     OW94196   6.899   6.223   9.926
30730SOL    HW194197   6.926   6.131   9.928
30730SOL    HW294198   6.810   6.223   9.962
30731SOL     OW94199   1.658   9.491   3.541
30731SOL    HW194200   1.745   9.467   3.573
30731SOL    HW294201   1.598   9.434   3.589
30732SOL     OW94202   7.667   4.377   3.871
30732SOL    HW194203   7.583   4.359   3.828
30732SOL    HW294204   7.668   4.471   3.885
30733SOL     OW94205   3.716   9.630   8.198
30733SOL    HW194206   3.681   9.707   8.241
30733SOL    HW294207   3.639   9.581   8.170
30734SOL     OW94208   3.796   9.107   0.264
30734SOL    HW194209   3.713   9.141   0.295
30734SOL    HW294210   3.841   9.078   0.343
30735SOL     OW94211  10.638   3.380   9.929
30735SOL    HW194212  10.644   3.284   9.926
30735SOL    HW294213  10.560   3.401   9.877
30736SOL     OW94214   9.903   9.010   1.471
30736SOL    HW194215   9.908   8.992   1.377
30736SOL    HW294216   9.937   9.099   1.480
30737SOL     OW94217   5.016   1.860   2.739
30737SOL    HW194218   4.970   1.868   2.822
30737SOL    HW294219   5.108   1.846   2.764
30738SOL     OW94220   9.087   8.164   4.782
30738SOL    HW194221   9.103   8.221   4.707
30738SOL    HW294222   8.992   8.155   4.785
30739SOL     OW94223   9.796   2.265   4.030
30739SOL    HW194224   9.821   2.355   4.049
30739SOL    HW294225   9.721   2.248   4.087
30740SOL     OW94226   9.105   9.842   5.809
30740SOL    HW194227   9.042   9.903   5.771
30740SOL    HW294228   9.135   9.885   5.889
30741SOL     OW94229   2.463  10.882   7.583
30741SOL    HW194230   2.532  10.851   7.641
30741SOL    HW294231   2.506  10.892   7.498
30742SOL     OW94232   5.655   1.490   6.662
30742SOL    HW194233   5.561   1.480   6.679
30742SOL    HW294234   5.672   1.583   6.675
30743SOL     OW94235   4.578   2.431   1.349
30743SOL    HW194236   4.604   2.518   1.379
30743SOL    HW294237   4.484   2.438   1.334
30744SOL     OW94238  10.009   0.589   3.949
30744SOL    HW194239   9.951   0.551   3.882
30744SOL    HW294240   9.951   0.642   4.004
30745SOL     OW94241   5.102   3.965   5.126
30745SOL    HW194242   5.007   3.962   5.118
30745SOL    HW294243   5.130   3.874   5.117
30746SOL     OW94244  10.870   3.651   0.731
30746SOL    HW194245  10.869   3.658   0.826
30746SOL    HW294246  10.822   3.570   0.712
30747SOL     OW94247   4.524   8.742   8.740
30747SOL    HW194248   4.522   8.704   8.652
30747SOL    HW294249   4.458   8.811   8.738
30748SOL     OW94250   9.477   7.402   6.230
30748SOL    HW194251   9.438   7.459   6.296
30748SOL    HW294252   9.403   7.374   6.176
30749SOL     OW94253  10.976   2.753   6.666
30749SOL    HW194254  10.893   2.711   6.645
30749SOL    HW294255  10.977   2.832   6.612
30750SOL     OW94256   1.474   9.301   7.591
30750SOL    HW194257   1.500   9.380   7.543
30750SOL    HW294258   1.554   9.273   7.636
30751SOL     OW94259   4.293   3.673   5.257
30751SOL    HW194260   4.354   3.718   5.198
30751SOL    HW294261   4.323   3.696   5.345
30752SOL     OW94262   8.871   4.263   9.080
30752SOL    HW194263   8.842   4.341   9.126
30752SOL    HW294264   8.812   4.194   9.110
30753SOL     OW94265  11.088   1.356   5.718
30753SOL    HW194266  11.138   1.275   5.704
30753SOL    HW294267  11.000   1.326   5.739
30754SOL     OW94268   0.306   6.581   8.351
30754SOL    HW194269   0.374   6.610   8.410
30754SOL    HW294270   0.318   6.486   8.346
30755SOL     OW94271   4.051   0.695   7.212
30755SOL    HW194272   3.998   0.653   7.279
30755SOL    HW294273   3.990   0.750   7.163
30756SOL     OW94274   7.147   7.766   3.123
30756SOL    HW194275   7.144   7.717   3.040
30756SOL    HW294276   7.193   7.847   3.101
30757SOL     OW94277   7.059   1.236   0.851
30757SOL    HW194278   7.024   1.220   0.763
30757SOL    HW294279   7.054   1.151   0.894
30758SOL     OW94280   8.658   8.280   2.414
30758SOL    HW194281   8.627   8.252   2.328
30758SOL    HW294282   8.753   8.266   2.410
30759SOL     OW94283   8.359   6.556   4.289
30759SOL    HW194284   8.317   6.552   4.203
30759SOL    HW294285   8.352   6.647   4.315
30760SOL     OW94286   8.792   3.741   6.830
30760SOL    HW194287   8.857   3.735   6.759
30760SOL    HW294288   8.832   3.694   6.903
30761SOL     OW94289   6.645   6.924   2.783
30761SOL    HW194290   6.558   6.920   2.743
30761SOL    HW294291   6.661   6.835   2.814
30762SOL     OW94292   9.497   3.215   5.080
30762SOL    HW194293   9.534   3.185   4.996
30762SOL    HW294294   9.414   3.167   5.088
30763SOL     OW94295   4.630   5.425   3.159
30763SOL    HW194296   4.647   5.490   3.227
30763SOL    HW294297   4.613   5.476   3.080
30764SOL     OW94298   0.628   7.714   9.681
30764SOL    HW194299   0.603   7.777   9.748
30764SOL    HW294300   0.722   7.728   9.668
30765SOL     OW94301   8.576  10.436   6.963
30765SOL    HW194302   8.613  10.524   6.966
30765SOL    HW294303   8.623  10.388   7.031
30766SOL     OW94304   0.687   9.303   3.714
30766SOL    HW194305   0.737   9.288   3.794
30766SOL    HW294306   0.659   9.394   3.719
30767SOL     OW94307   6.382   8.598   7.460
30767SOL    HW194308   6.352   8.676   7.413
30767SOL    HW294309   6.475   8.591   7.438
30768SOL     OW94310   0.923   0.644   7.047
30768SOL    HW194311   0.872   0.632   6.966
30768SOL    HW294312   1.014   0.634   7.019
30769SOL     OW94313   9.716  10.741   9.003
30769SOL    HW194314   9.711  10.822   9.053
30769SOL    HW294315   9.709  10.769   8.911
30770SOL     OW94316   1.608   0.871   8.423
30770SOL    HW194317   1.576   0.926   8.494
30770SOL    HW294318   1.551   0.892   8.349
30771SOL     OW94319   7.634   7.425   7.691
30771SOL    HW194320   7.704   7.380   7.643
30771SOL    HW294321   7.677   7.500   7.732
30772SOL     OW94322   8.535   5.890   9.941
30772SOL    HW194323   8.586   5.969   9.924
30772SOL    HW294324   8.462   5.920   9.995
30773SOL     OW94325   5.535   3.542   3.849
30773SOL    HW194326   5.607   3.495   3.806
30773SOL    HW294327   5.460   3.528   3.792
30774SOL     OW94328   9.865   2.809  10.574
30774SOL    HW194329   9.850   2.770  10.487
30774SOL    HW294330   9.814   2.754  10.633
30775SOL     OW94331   7.427   5.119   2.861
30775SOL    HW194332   7.466   5.197   2.821
30775SOL    HW294333   7.354   5.096   2.803
30776SOL     OW94334   4.920   1.597   1.718
30776SOL    HW194335   4.886   1.685   1.708
30776SOL    HW294336   4.999   1.608   1.771
30777SOL     OW94337  10.744   6.236   2.526
30777SOL    HW194338  10.661   6.276   2.551
30777SOL    HW294339  10.771   6.283   2.447
30778SOL     OW94340   7.957   7.584  11.000
30778SOL    HW194341   7.964   7.494  10.967
30778SOL    HW294342   7.971   7.577  11.094
30779SOL     OW94343  10.049   3.933   0.239
30779SOL    HW194344  10.066   4.017   0.280
30779SOL    HW294345   9.998   3.954   0.160
30780SOL     OW94346   1.608   5.558   8.598
30780SOL    HW194347   1.692   5.513   8.591
30780SOL    HW294348   1.552   5.515   8.533
30781SOL     OW94349   8.855   1.834   7.922
30781SOL    HW194350   8.780   1.880   7.885
30781SOL    HW294351   8.822   1.746   7.941
30782SOL     OW94352   0.120   9.170   4.883
30782SOL    HW194353   0.149   9.177   4.792
30782SOL    HW294354   0.059   9.096   4.882
30783SOL     OW94355   8.165  10.549   9.888
30783SOL    HW194356   8.257  10.559   9.864
30783SOL    HW294357   8.122  10.521   9.807
30784SOL     OW94358   2.637   1.466   2.658
30784SOL    HW194359   2.686   1.470   2.575
30784SOL    HW294360   2.592   1.550   2.664
30785SOL     OW94361   2.756  10.738   4.206
30785SOL    HW194362   2.723  10.825   4.186
30785SOL    HW294363   2.687  10.697   4.258
30786SOL     OW94364   9.904   3.710   5.896
30786SOL    HW194365   9.983   3.762   5.884
30786SOL    HW294366   9.849   3.762   5.954
30787SOL     OW94367  10.346   3.077   5.120
30787SOL    HW194368  10.346   2.999   5.064
30787SOL    HW294369  10.437   3.087   5.147
30788SOL     OW94370   6.294   3.303  10.634
30788SOL    HW194371   6.261   3.213  10.634
30788SOL    HW294372   6.215   3.357  10.626
30789SOL     OW94373   9.651   1.958   4.241
30789SOL    HW194374   9.680   1.888   4.182
30789SOL    HW294375   9.558   1.969   4.221
30790SOL     OW94376   1.451   1.972   2.610
30790SOL    HW194377   1.442   1.965   2.705
30790SOL    HW294378   1.416   1.889   2.576
30791SOL     OW94379   0.503   6.490   4.230
30791SOL    HW194380   0.544   6.566   4.271
30791SOL    HW294381   0.538   6.414   4.278
30792SOL     OW94382   8.362   1.592   7.435
30792SOL    HW194383   8.334   1.643   7.511
30792SOL    HW294384   8.309   1.512   7.439
30793SOL     OW94385   2.190   0.715   5.626
30793SOL    HW194386   2.252   0.668   5.570
30793SOL    HW294387   2.111   0.723   5.572
30794SOL     OW94388  10.190   0.697   3.052
30794SOL    HW194389  10.259   0.658   3.106
30794SOL    HW294390  10.218   0.787   3.039
30795SOL     OW94391   8.865   0.346   6.427
30795SOL    HW194392   8.812   0.273   6.394
30795SOL    HW294393   8.828   0.423   6.385
30796SOL     OW94394   9.323   0.817   5.722
30796SOL    HW194395   9.381   0.842   5.793
30796SOL    HW294396   9.289   0.731   5.748
30797SOL     OW94397   9.042   4.950   9.531
30797SOL    HW194398   9.035   4.997   9.447
30797SOL    HW294399   9.093   4.871   9.510
30798SOL     OW94400   5.273   3.906   3.577
30798SOL    HW194401   5.243   3.969   3.512
30798SOL    HW294402   5.262   3.950   3.661
30799SOL     OW94403   8.471   3.274   7.706
30799SOL    HW194404   8.537   3.252   7.640
30799SOL    HW294405   8.521   3.311   7.778
30800SOL     OW94406   2.347   1.660   8.956
30800SOL    HW194407   2.279   1.609   8.911
30800SOL    HW294408   2.349   1.624   9.045
30801SOL     OW94409   7.796   3.252   7.889
30801SOL    HW194410   7.754   3.338   7.883
30801SOL    HW294411   7.774   3.209   7.806
30802SOL     OW94412   1.938   8.236   2.728
30802SOL    HW194413   1.977   8.321   2.748
30802SOL    HW294414   1.859   8.232   2.782
30803SOL     OW94415  10.283  10.937   7.950
30803SOL    HW194416  10.220  10.876   7.987
30803SOL    HW294417  10.366  10.889   7.950
30804SOL     OW94418   7.501   1.836   7.246
30804SOL    HW194419   7.466   1.835   7.335
30804SOL    HW294420   7.495   1.745   7.217
30805SOL     OW94421   6.996   3.786   5.844
30805SOL    HW194422   7.028   3.851   5.782
30805SOL    HW294423   6.927   3.740   5.796
30806SOL     OW94424  11.104   9.622   6.068
30806SOL    HW194425  11.055   9.540   6.062
30806SOL    HW294426  11.038   9.689   6.085
30807SOL     OW94427   2.872   1.465   4.007
30807SOL    HW194428   2.942   1.413   3.966
30807SOL    HW294429   2.821   1.498   3.933
30808SOL     OW94430   0.618   7.201   8.650
30808SOL    HW194431   0.592   7.261   8.580
30808SOL    HW294432   0.663   7.256   8.714
30809SOL     OW94433   5.288  10.640   1.332
30809SOL    HW194434   5.378  10.656   1.359
30809SOL    HW294435   5.267  10.554   1.368
30810SOL     OW94436   1.235   5.309   5.753
30810SOL    HW194437   1.158   5.282   5.802
30810SOL    HW294438   1.201   5.361   5.680
30811SOL     OW94439   5.690   1.737   4.362
30811SOL    HW194440   5.783   1.749   4.380
30811SOL    HW294441   5.686   1.662   4.302
30812SOL     OW94442   8.785  10.783   6.180
30812SOL    HW194443   8.786  10.859   6.238
30812SOL    HW294444   8.878  10.764   6.164
30813SOL     OW94445   3.513  10.602   3.853
30813SOL    HW194446   3.428  10.642   3.834
30813SOL    HW294447   3.574  10.676   3.856
30814SOL     OW94448   7.214   1.813   0.540
30814SOL    HW194449   7.121   1.834   0.538
30814SOL    HW294450   7.258   1.897   0.553
30815SOL     OW94451   3.284   3.658   5.947
30815SOL    HW194452   3.369   3.702   5.952
30815SOL    HW294453   3.220   3.729   5.945
30816SOL     OW94454   5.164   0.634   0.163
30816SOL    HW194455   5.210   0.714   0.140
30816SOL    HW294456   5.119   0.655   0.245
30817SOL     OW94457   8.401  10.615   8.751
30817SOL    HW194458   8.481  10.568   8.774
30817SOL    HW294459   8.431  10.700   8.720
30818SOL     OW94460   2.550   8.566   2.176
30818SOL    HW194461   2.541   8.504   2.103
30818SOL    HW294462   2.536   8.512   2.254
30819SOL     OW94463   6.348   3.325   8.980
30819SOL    HW194464   6.416   3.259   8.967
30819SOL    HW294465   6.388   3.390   9.037
30820SOL     OW94466   7.392   0.293   3.342
30820SOL    HW194467   7.327   0.352   3.305
30820SOL    HW294468   7.345   0.243   3.409
30821SOL     OW94469   0.908   4.427   8.957
30821SOL    HW194470   0.944   4.514   8.975
30821SOL    HW294471   0.981   4.378   8.919
30822SOL     OW94472   2.212  11.073   2.903
30822SOL    HW194473   2.157  11.017   2.958
30822SOL    HW294474   2.173  11.066   2.815
30823SOL     OW94475   4.815   4.743   3.390
30823SOL    HW194476   4.829   4.836   3.407
30823SOL    HW294477   4.780   4.708   3.472
30824SOL     OW94478   0.112   7.398   8.009
30824SOL    HW194479   0.105   7.433   7.920
30824SOL    HW294480   0.074   7.465   8.065
30825SOL     OW94481   3.319   1.557   4.355
30825SOL    HW194482   3.254   1.535   4.288
30825SOL    HW294483   3.317   1.482   4.415
30826SOL     OW94484   9.536   4.572   6.649
30826SOL    HW194485   9.493   4.656   6.638
30826SOL    HW294486   9.628   4.593   6.663
30827SOL     OW94487   7.051   0.826   2.216
30827SOL    HW194488   7.019   0.835   2.305
30827SOL    HW294489   6.984   0.867   2.162
30828SOL     OW94490   2.435   3.987  10.277
30828SOL    HW194491   2.514   3.947  10.313
30828SOL    HW294492   2.467   4.052  10.215
30829SOL     OW94493   4.535   6.529   1.453
30829SOL    HW194494   4.455   6.577   1.471
30829SOL    HW294495   4.595   6.594   1.418
30830SOL     OW94496   7.619   1.125   9.121
30830SOL    HW194497   7.668   1.109   9.040
30830SOL    HW294498   7.611   1.038   9.161
30831SOL     OW94499   4.958   7.301   1.508
30831SOL    HW194500   4.880   7.351   1.484
30831SOL    HW294501   4.971   7.241   1.434
30832SOL     OW94502   5.637   4.503   5.196
30832SOL    HW194503   5.718   4.553   5.189
30832SOL    HW294504   5.631   4.479   5.288
30833SOL     OW94505   6.003   3.238   3.780
30833SOL    HW194506   6.001   3.223   3.685
30833SOL    HW294507   6.066   3.173   3.813
30834SOL     OW94508  10.431   2.042   8.198
30834SOL    HW194509  10.456   1.982   8.128
30834SOL    HW294510  10.464   2.001   8.278
30835SOL     OW94511   0.658  10.113   2.851
30835SOL    HW194512   0.672  10.021   2.873
30835SOL    HW294513   0.741  10.156   2.874
30836SOL     OW94514   3.358   8.213   3.399
30836SOL    HW194515   3.374   8.298   3.358
30836SOL    HW294516   3.440   8.165   3.389
30837SOL     OW94517   6.173   4.630   7.445
30837SOL    HW194518   6.256   4.594   7.414
30837SOL    HW294519   6.124   4.648   7.365
30838SOL     OW94520   5.893   0.102   5.826
30838SOL    HW194521   5.975   0.150   5.817
30838SOL    HW294522   5.844   0.150   5.893
30839SOL     OW94523   2.758   0.796   7.697
30839SOL    HW194524   2.699   0.752   7.635
30839SOL    HW294525   2.709   0.871   7.728
30840SOL     OW94526   8.302   8.063   8.182
30840SOL    HW194527   8.381   8.102   8.144
30840SOL    HW294528   8.313   8.072   8.276
30841SOL     OW94529   7.112   8.890   3.400
30841SOL    HW194530   7.031   8.849   3.429
30841SOL    HW294531   7.085   8.956   3.337
30842SOL     OW94532  10.952   2.435   8.832
30842SOL    HW194533  10.982   2.474   8.750
30842SOL    HW294534  11.004   2.355   8.841
30843SOL     OW94535   9.639   1.088   5.691
30843SOL    HW194536   9.695   1.108   5.765
30843SOL    HW294537   9.687   1.019   5.643
30844SOL     OW94538   8.932   2.268   5.568
30844SOL    HW194539   8.910   2.222   5.649
30844SOL    HW294540   8.847   2.289   5.529
30845SOL     OW94541   0.610   0.660   6.467
30845SOL    HW194542   0.610   0.633   6.375
30845SOL    HW294543   0.686   0.718   6.475
30846SOL     OW94544   1.876   0.969   9.332
30846SOL    HW194545   1.887   1.049   9.383
30846SOL    HW294546   1.831   0.997   9.252
30847SOL     OW94547   8.113   5.618   7.759
30847SOL    HW194548   8.079   5.677   7.692
30847SOL    HW294549   8.038   5.564   7.783
30848SOL     OW94550   6.654   2.476   3.564
30848SOL    HW194551   6.731   2.461   3.509
30848SOL    HW294552   6.599   2.399   3.549
30849SOL     OW94553   8.705  10.500   5.429
30849SOL    HW194554   8.787  10.519   5.474
30849SOL    HW294555   8.640  10.496   5.498
30850SOL     OW94556   5.395   3.653   1.568
30850SOL    HW194557   5.359   3.603   1.641
30850SOL    HW294558   5.319   3.682   1.518
30851SOL     OW94559   8.404   2.086   2.793
30851SOL    HW194560   8.444   2.168   2.766
30851SOL    HW294561   8.338   2.111   2.857
30852SOL     OW94562   9.895  10.993   2.992
30852SOL    HW194563   9.834  11.066   2.989
30852SOL    HW294564   9.977  11.031   3.024
30853SOL     OW94565   6.813   2.156   3.229
30853SOL    HW194566   6.889   2.104   3.201
30853SOL    HW294567   6.748   2.091   3.254
30854SOL     OW94568   3.416   4.076   8.970
30854SOL    HW194569   3.463   4.098   9.050
30854SOL    HW294570   3.452   4.135   8.904
30855SOL     OW94571   7.082   8.357  10.432
30855SOL    HW194572   7.168   8.377  10.394
30855SOL    HW294573   7.083   8.399  10.518
30856SOL     OW94574   9.727   5.997   2.557
30856SOL    HW194575   9.694   5.973   2.643
30856SOL    HW294576   9.680   6.077   2.535
30857SOL     OW94577   9.810   3.158   2.036
30857SOL    HW194578   9.896   3.136   2.000
30857SOL    HW294579   9.829   3.201   2.119
30858SOL     OW94580   5.600   8.580   3.218
30858SOL    HW194581   5.680   8.613   3.178
30858SOL    HW294582   5.597   8.621   3.304
30859SOL     OW94583   7.226   7.108   4.443
30859SOL    HW194584   7.239   7.192   4.399
30859SOL    HW294585   7.140   7.078   4.413
30860SOL     OW94586   8.117   0.154   2.403
30860SOL    HW194587   8.165   0.221   2.451
30860SOL    HW294588   8.077   0.201   2.330
30861SOL     OW94589  11.055   9.174   3.179
30861SOL    HW194590  10.999   9.251   3.188
30861SOL    HW294591  11.078   9.150   3.269
30862SOL     OW94592   0.610  10.943   4.903
30862SOL    HW194593   0.624  10.861   4.856
30862SOL    HW294594   0.664  10.936   4.981
30863SOL     OW94595   6.102  10.155   2.485
30863SOL    HW194596   6.042  10.171   2.412
30863SOL    HW294597   6.046  10.126   2.557
30864SOL     OW94598   8.861   1.223   0.914
30864SOL    HW194599   8.796   1.185   0.973
30864SOL    HW294600   8.865   1.161   0.840
30865SOL     OW94601  10.341   5.303   3.108
30865SOL    HW194602  10.306   5.345   3.029
30865SOL    HW294603  10.351   5.211   3.083
30866SOL     OW94604   9.444   0.092   5.470
30866SOL    HW194605   9.537   0.096   5.446
30866SOL    HW294606   9.416   0.005   5.440
30867SOL     OW94607   6.392   9.553   8.275
30867SOL    HW194608   6.416   9.536   8.184
30867SOL    HW294609   6.350   9.472   8.304
30868SOL     OW94610   1.492   9.936   7.401
30868SOL    HW194611   1.407   9.923   7.442
30868SOL    HW294612   1.532  10.007   7.450
30869SOL     OW94613   2.696  10.287   8.086
30869SOL    HW194614   2.694  10.296   8.181
30869SOL    HW294615   2.656  10.201   8.069
30870SOL     OW94616   1.782  10.085   2.868
30870SOL    HW194617   1.808  10.014   2.927
30870SOL    HW294618   1.693  10.062   2.841
30871SOL     OW94619   7.291   2.020   8.282
30871SOL    HW194620   7.276   2.099   8.333
30871SOL    HW294621   7.341   2.049   8.206
30872SOL     OW94622   0.298   5.023  10.811
30872SOL    HW194623   0.309   4.930  10.791
30872SOL    HW294624   0.246   5.056  10.738
30873SOL     OW94625   6.342   1.870   9.215
30873SOL    HW194626   6.376   1.932   9.278
30873SOL    HW294627   6.251   1.895   9.202
30874SOL     OW94628   5.199   3.800   0.735
30874SOL    HW194629   5.267   3.815   0.800
30874SOL    HW294630   5.166   3.712   0.755
30875SOL     OW94631   9.389   0.784   0.336
30875SOL    HW194632   9.463   0.840   0.312
30875SOL    HW294633   9.363   0.814   0.422
30876SOL     OW94634   1.507   3.495   7.893
30876SOL    HW194635   1.473   3.559   7.831
30876SOL    HW294636   1.431   3.470   7.945
30877SOL     OW94637   1.147   1.420  10.052
30877SOL    HW194638   1.200   1.495  10.077
30877SOL    HW294639   1.181   1.348  10.105
30878SOL     OW94640   0.431   7.513   4.101
30878SOL    HW194641   0.514   7.475   4.071
30878SOL    HW294642   0.404   7.570   4.029
30879SOL     OW94643   2.687  10.805   0.618
30879SOL    HW194644   2.694  10.735   0.553
30879SOL    HW294645   2.646  10.764   0.694
30880SOL     OW94646   2.938   9.923   7.956
30880SOL    HW194647   3.005   9.855   7.942
30880SOL    HW294648   2.879   9.885   8.021
30881SOL     OW94649   0.985   1.223   7.350
30881SOL    HW194650   1.074   1.223   7.385
30881SOL    HW294651   0.929   1.216   7.427
30882SOL     OW94652   8.235   7.600   0.897
30882SOL    HW194653   8.276   7.682   0.923
30882SOL    HW294654   8.144   7.608   0.926
30883SOL     OW94655   9.847  10.438   1.131
30883SOL    HW194656   9.803  10.519   1.157
30883SOL    HW294657   9.817  10.373   1.194
30884SOL     OW94658   5.458   5.221   8.441
30884SOL    HW194659   5.395   5.234   8.370
30884SOL    HW294660   5.533   5.275   8.416
30885SOL     OW94661   8.943   2.163   9.506
30885SOL    HW194662   8.934   2.122   9.420
30885SOL    HW294663   9.035   2.189   9.510
30886SOL     OW94664  10.334  10.619   8.132
30886SOL    HW194665  10.364  10.660   8.050
30886SOL    HW294666  10.360  10.527   8.124
30887SOL     OW94667   5.746   0.733   6.513
30887SOL    HW194668   5.661   0.714   6.473
30887SOL    HW294669   5.803   0.662   6.483
30888SOL     OW94670   6.740   4.741  10.112
30888SOL    HW194671   6.778   4.702  10.191
30888SOL    HW294672   6.663   4.686  10.093
30889SOL     OW94673   7.440   2.592   9.282
30889SOL    HW194674   7.463   2.501   9.262
30889SOL    HW294675   7.462   2.602   9.374
30890SOL     OW94676   9.301   4.304   6.435
30890SOL    HW194677   9.376   4.338   6.387
30890SOL    HW294678   9.339   4.251   6.505
30891SOL     OW94679   9.570   4.312   9.077
30891SOL    HW194680   9.589   4.307   8.983
30891SOL    HW294681   9.579   4.222   9.108
30892SOL     OW94682   8.320   1.134   6.640
30892SOL    HW194683   8.294   1.067   6.703
30892SOL    HW294684   8.414   1.144   6.653
30893SOL     OW94685   4.963   3.279   5.141
30893SOL    HW194686   4.899   3.340   5.105
30893SOL    HW294687   5.026   3.334   5.187
30894SOL     OW94688   6.746   9.239   9.525
30894SOL    HW194689   6.717   9.330   9.531
30894SOL    HW294690   6.808   9.229   9.597
30895SOL     OW94691   5.482   1.033   7.580
30895SOL    HW194692   5.554   0.974   7.604
30895SOL    HW294693   5.524   1.100   7.526
30896SOL     OW94694   8.637   2.161   7.027
30896SOL    HW194695   8.630   2.223   7.099
30896SOL    HW294696   8.697   2.203   6.965
30897SOL     OW94697   7.229   1.300   7.173
30897SOL    HW194698   7.208   1.240   7.101
30897SOL    HW294699   7.319   1.277   7.198
30898SOL     OW94700   7.419   0.148   8.407
30898SOL    HW194701   7.351   0.212   8.426
30898SOL    HW294702   7.422   0.092   8.484
30899SOL     OW94703   1.078   6.391   8.841
30899SOL    HW194704   1.173   6.403   8.844
30899SOL    HW294705   1.059   6.329   8.912
30900SOL     OW94706   7.420   1.027   1.726
30900SOL    HW194707   7.397   0.951   1.671
30900SOL    HW294708   7.502   1.002   1.769
30901SOL     OW94709   1.129   0.132   5.719
30901SOL    HW194710   1.039   0.107   5.738
30901SOL    HW294711   1.178   0.049   5.724
30902SOL     OW94712  10.016   3.655   0.762
30902SOL    HW194713  10.097   3.704   0.751
30902SOL    HW294714   9.951   3.721   0.783
30903SOL     OW94715   5.808   0.460  10.047
30903SOL    HW194716   5.826   0.438  10.138
30903SOL    HW294717   5.870   0.407   9.997
30904SOL     OW94718   0.453   3.033   4.116
30904SOL    HW194719   0.364   3.064   4.099
30904SOL    HW294720   0.508   3.111   4.107
30905SOL     OW94721   5.613  10.911  10.105
30905SOL    HW194722   5.560  10.865  10.040
30905SOL    HW294723   5.552  10.971  10.148
30906SOL     OW94724   8.709   2.022  10.276
30906SOL    HW194725   8.801   2.045  10.264
30906SOL    HW294726   8.668   2.044  10.192
30907SOL     OW94727   9.451   1.980   8.947
30907SOL    HW194728   9.432   1.886   8.948
30907SOL    HW294729   9.545   1.984   8.926
30908SOL     OW94730   3.821   9.377  11.035
30908SOL    HW194731   3.813   9.283  11.015
30908SOL    HW294732   3.912   9.387  11.063
30909SOL     OW94733   9.288   0.705   4.973
30909SOL    HW194734   9.376   0.742   4.984
30909SOL    HW294735   9.304   0.613   4.950
30910SOL     OW94736   6.301   6.227   8.601
30910SOL    HW194737   6.290   6.290   8.530
30910SOL    HW294738   6.251   6.150   8.572
30911SOL     OW94739   8.965   8.970   6.540
30911SOL    HW194740   8.903   8.900   6.562
30911SOL    HW294741   9.044   8.924   6.511
30912SOL     OW94742   8.652   2.636   5.076
30912SOL    HW194743   8.565   2.658   5.110
30912SOL    HW294744   8.687   2.573   5.139
30913SOL     OW94745   7.013   6.139   4.414
30913SOL    HW194746   6.986   6.214   4.361
30913SOL    HW294747   7.026   6.068   4.350
30914SOL     OW94748  10.133   2.972   6.895
30914SOL    HW194749  10.136   2.930   6.981
30914SOL    HW294750  10.202   3.038   6.898
30915SOL     OW94751   3.163   3.079   7.511
30915SOL    HW194752   3.207   3.062   7.427
30915SOL    HW294753   3.076   3.041   7.500
30916SOL     OW94754   7.423   0.890   3.253
30916SOL    HW194755   7.446   0.934   3.334
30916SOL    HW294756   7.360   0.823   3.279
30917SOL     OW94757   6.929   4.408   8.249
30917SOL    HW194758   6.888   4.367   8.325
30917SOL    HW294759   6.996   4.465   8.286
30918SOL     OW94760   5.892   0.772  10.535
30918SOL    HW194761   5.930   0.822  10.463
30918SOL    HW294762   5.935   0.686  10.530
30919SOL     OW94763   9.641   7.578   4.402
30919SOL    HW194764   9.622   7.493   4.443
30919SOL    HW294765   9.556   7.620   4.394
30920SOL     OW94766   7.058   0.987  10.512
30920SOL    HW194767   7.024   0.901  10.486
30920SOL    HW294768   6.995   1.019  10.576
30921SOL     OW94769  10.316   2.572   8.775
30921SOL    HW194770  10.243   2.521   8.738
30921SOL    HW294771  10.393   2.517   8.759
30922SOL     OW94772   7.518   2.298   1.037
30922SOL    HW194773   7.525   2.380   0.988
30922SOL    HW294774   7.465   2.320   1.113
30923SOL     OW94775   5.914  10.652   9.676
30923SOL    HW194776   6.004  10.625   9.659
30923SOL    HW294777   5.861  10.592   9.624
30924SOL     OW94778   0.302   0.199   0.987
30924SOL    HW194779   0.286   0.155   1.070
30924SOL    HW294780   0.349   0.134   0.934
30925SOL     OW94781   4.164   5.794   0.790
30925SOL    HW194782   4.109   5.716   0.783
30925SOL    HW294783   4.134   5.851   0.719
30926SOL     OW94784   7.851   1.933   6.524
30926SOL    HW194785   7.773   1.880   6.505
30926SOL    HW294786   7.904   1.927   6.444
30927SOL     OW94787  10.318   1.227   3.890
30927SOL    HW194788  10.270   1.212   3.808
30927SOL    HW294789  10.278   1.305   3.928
30928SOL     OW94790   7.890   5.135   7.815
30928SOL    HW194791   7.853   5.169   7.896
30928SOL    HW294792   7.846   5.051   7.803
30929SOL     OW94793   9.814   3.676   8.914
30929SOL    HW194794   9.754   3.601   8.909
30929SOL    HW294795   9.781   3.737   8.848
30930SOL     OW94796   7.062   7.288   5.952
30930SOL    HW194797   7.105   7.318   6.032
30930SOL    HW294798   7.054   7.193   5.963
30931SOL     OW94799   9.105   9.041   1.325
30931SOL    HW194800   9.132   9.117   1.376
30931SOL    HW294801   9.026   9.069   1.278
30932SOL     OW94802   0.794   4.748   1.068
30932SOL    HW194803   0.761   4.828   1.028
30932SOL    HW294804   0.731   4.681   1.042
30933SOL     OW94805  11.040   9.820  10.046
30933SOL    HW194806  11.010   9.862   9.965
30933SOL    HW294807  11.051   9.892  10.108
30934SOL     OW94808   6.397   1.591   1.894
30934SOL    HW194809   6.336   1.607   1.822
30934SOL    HW294810   6.396   1.672   1.945
30935SOL     OW94811   6.474   3.486   9.143
30935SOL    HW194812   6.542   3.552   9.152
30935SOL    HW294813   6.409   3.509   9.209
30936SOL     OW94814   8.888   2.385   2.893
30936SOL    HW194815   8.840   2.308   2.863
30936SOL    HW294816   8.915   2.363   2.982
30937SOL     OW94817   7.077   8.655   2.990
30937SOL    HW194818   6.992   8.624   3.021
30937SOL    HW294819   7.089   8.739   3.034
30938SOL     OW94820   6.997   5.722   1.954
30938SOL    HW194821   7.022   5.629   1.955
30938SOL    HW294822   7.009   5.751   2.044
30939SOL     OW94823   7.663   0.232   2.356
30939SOL    HW194824   7.618   0.242   2.272
30939SOL    HW294825   7.612   0.285   2.417
30940SOL     OW94826  10.247   6.167   8.728
30940SOL    HW194827  10.155   6.142   8.736
30940SOL    HW294828  10.246   6.262   8.722
30941SOL     OW94829   7.999   0.832   6.979
30941SOL    HW194830   7.995   0.927   6.974
30941SOL    HW294831   8.055   0.807   6.905
30942SOL     OW94832   6.302   1.583   6.218
30942SOL    HW194833   6.372   1.608   6.278
30942SOL    HW294834   6.339   1.596   6.130
30943SOL     OW94835  10.383   0.995   6.593
30943SOL    HW194836  10.475   0.978   6.572
30943SOL    HW294837  10.385   1.068   6.655
30944SOL     OW94838  10.797  10.091   1.001
30944SOL    HW194839  10.767  10.060   1.086
30944SOL    HW294840  10.814  10.010   0.951
30945SOL     OW94841   6.384   1.482   0.119
30945SOL    HW194842   6.445   1.479   0.046
30945SOL    HW294843   6.422   1.423   0.184
30946SOL     OW94844  10.056   1.762   7.255
30946SOL    HW194845  10.073   1.684   7.307
30946SOL    HW294846   9.998   1.731   7.185
30947SOL     OW94847   6.486   6.850   3.318
30947SOL    HW194848   6.475   6.778   3.380
30947SOL    HW294849   6.542   6.814   3.249
30948SOL     OW94850   7.883   0.864   4.766
30948SOL    HW194851   7.935   0.888   4.842
30948SOL    HW294852   7.814   0.807   4.801
30949SOL     OW94853   8.756   5.761  11.080
30949SOL    HW194854   8.777   5.696  11.147
30949SOL    HW294855   8.750   5.710  10.999
30950SOL     OW94856   5.091   2.120   0.982
30950SOL    HW194857   5.172   2.070   0.971
30950SOL    HW294858   5.069   2.149   0.893
30951SOL     OW94859   4.748   6.293   0.761
30951SOL    HW194860   4.805   6.344   0.819
30951SOL    HW294861   4.703   6.232   0.819
30952SOL     OW94862   1.559   0.089   4.295
30952SOL    HW194863   1.539   0.103   4.387
30952SOL    HW294864   1.524   0.002   4.276
30953SOL     OW94865   6.789   8.845   6.869
30953SOL    HW194866   6.760   8.820   6.781
30953SOL    HW294867   6.874   8.887   6.855
30954SOL     OW94868   9.346   9.063   7.358
30954SOL    HW194869   9.256   9.094   7.357
30954SOL    HW294870   9.339   8.967   7.354
30955SOL     OW94871   0.893   5.108   6.464
30955SOL    HW194872   0.862   5.149   6.383
30955SOL    HW294873   0.986   5.131   6.469
30956SOL     OW94874   1.522   0.464   5.497
30956SOL    HW194875   1.457   0.532   5.481
30956SOL    HW294876   1.482   0.385   5.461
30957SOL     OW94877   4.621   6.648   4.479
30957SOL    HW194878   4.660   6.581   4.536
30957SOL    HW294879   4.529   6.623   4.472
30958SOL     OW94880  10.503   1.868   5.786
30958SOL    HW194881  10.561   1.811   5.837
30958SOL    HW294882  10.508   1.833   5.697
30959SOL     OW94883   7.736   2.577   7.213
30959SOL    HW194884   7.710   2.487   7.193
30959SOL    HW294885   7.668   2.631   7.172
30960SOL     OW94886   0.843   3.198   9.280
30960SOL    HW194887   0.758   3.232   9.307
30960SOL    HW294888   0.840   3.105   9.304
30961SOL     OW94889   8.836   5.279   8.784
30961SOL    HW194890   8.807   5.188   8.795
30961SOL    HW294891   8.928   5.271   8.758
30962SOL     OW94892   8.030   3.515   0.306
30962SOL    HW194893   8.043   3.434   0.255
30962SOL    HW294894   7.938   3.512   0.332
30963SOL     OW94895   5.293   9.496  10.258
30963SOL    HW194896   5.201   9.489  10.282
30963SOL    HW294897   5.307   9.424  10.196
30964SOL     OW94898   8.982   9.952   7.393
30964SOL    HW194899   9.060   9.936   7.339
30964SOL    HW294900   8.996   9.899   7.471
30965SOL     OW94901   5.354   4.490   0.846
30965SOL    HW194902   5.334   4.413   0.793
30965SOL    HW294903   5.447   4.481   0.867
30966SOL     OW94904   0.706   3.358   8.784
30966SOL    HW194905   0.785   3.303   8.782
30966SOL    HW294906   0.634   3.296   8.774
30967SOL     OW94907   6.671  10.573   0.163
30967SOL    HW194908   6.698  10.613   0.246
30967SOL    HW294909   6.639  10.646   0.111
30968SOL     OW94910   1.868   0.626   3.411
30968SOL    HW194911   1.960   0.651   3.403
30968SOL    HW294912   1.868   0.554   3.474
30969SOL     OW94913   4.417   4.904   2.887
30969SOL    HW194914   4.387   4.817   2.914
30969SOL    HW294915   4.397   4.960   2.961
30970SOL     OW94916   1.257   1.312   2.047
30970SOL    HW194917   1.263   1.391   2.101
30970SOL    HW294918   1.347   1.278   2.043
30971SOL     OW94919   0.546   1.883   0.370
30971SOL    HW194920   0.489   1.952   0.401
30971SOL    HW294921   0.613   1.874   0.438
30972SOL     OW94922  11.096   4.999  10.866
30972SOL    HW194923  11.099   4.904  10.882
30972SOL    HW294924  11.069   5.006  10.774
30973SOL     OW94925   4.113   4.315   8.648
30973SOL    HW194926   4.080   4.296   8.560
30973SOL    HW294927   4.065   4.254   8.705
30974SOL     OW94928   8.444   0.169   9.605
30974SOL    HW194929   8.514   0.148   9.542
30974SOL    HW294930   8.363   0.155   9.556
30975SOL     OW94931   3.090   5.218   0.427
30975SOL    HW194932   3.115   5.296   0.476
30975SOL    HW294933   3.151   5.215   0.353
30976SOL     OW94934   1.391   0.705  10.560
30976SOL    HW194935   1.430   0.683  10.475
30976SOL    HW294936   1.404   0.626  10.613
30977SOL     OW94937   7.962   2.777   9.859
30977SOL    HW194938   8.055   2.774   9.883
30977SOL    HW294939   7.958   2.839   9.786
30978SOL     OW94940   8.453   3.371   9.216
30978SOL    HW194941   8.441   3.436   9.146
30978SOL    HW294942   8.370   3.369   9.263
30979SOL     OW94943   6.581  10.457   1.283
30979SOL    HW194944   6.544  10.369   1.272
30979SOL    HW294945   6.518  10.515   1.240
30980SOL     OW94946   2.530   8.237   1.701
30980SOL    HW194947   2.511   8.305   1.636
30980SOL    HW294948   2.623   8.249   1.722
30981SOL     OW94949   9.564   8.989   6.073
30981SOL    HW194950   9.582   9.037   6.154
30981SOL    HW294951   9.646   8.995   6.023
30982SOL     OW94952  10.600   6.615  10.110
30982SOL    HW194953  10.650   6.538  10.138
30982SOL    HW294954  10.510   6.595  10.135
30983SOL     OW94955   7.230   0.184   9.057
30983SOL    HW194956   7.303   0.186   8.994
30983SOL    HW294957   7.272   0.195   9.142
30984SOL     OW94958  11.051   3.620   2.029
30984SOL    HW194959  11.002   3.689   1.985
30984SOL    HW294960  10.990   3.546   2.032
30985SOL     OW94961   0.154   2.058  10.309
30985SOL    HW194962   0.220   2.047  10.241
30985SOL    HW294963   0.072   2.032  10.267
30986SOL     OW94964   9.423   1.149   7.051
30986SOL    HW194965   9.510   1.181   7.027
30986SOL    HW294966   9.383   1.221   7.100
30987SOL     OW94967   2.395   9.609   7.644
30987SOL    HW194968   2.353   9.689   7.613
30987SOL    HW294969   2.359   9.540   7.588
30988SOL     OW94970   4.711   6.235   0.495
30988SOL    HW194971   4.664   6.154   0.473
30988SOL    HW294972   4.717   6.234   0.590
30989SOL     OW94973   7.380   3.107   5.585
30989SOL    HW194974   7.432   3.086   5.507
30989SOL    HW294975   7.349   3.196   5.570
30990SOL     OW94976   2.328   4.743   6.112
30990SOL    HW194977   2.283   4.661   6.088
30990SOL    HW294978   2.262   4.811   6.101
30991SOL     OW94979   6.544   7.583   2.666
30991SOL    HW194980   6.638   7.563   2.661
30991SOL    HW294981   6.524   7.622   2.581
30992SOL     OW94982   1.822   4.090   0.330
30992SOL    HW194983   1.740   4.103   0.283
30992SOL    HW294984   1.886   4.071   0.261
30993SOL     OW94985   4.342   0.787   9.971
30993SOL    HW194986   4.317   0.807  10.061
30993SOL    HW294987   4.364   0.693   9.972
30994SOL     OW94988   9.686   2.739   2.140
30994SOL    HW194989   9.684   2.766   2.048
30994SOL    HW294990   9.742   2.661   2.141
30995SOL     OW94991   6.082  10.660   4.390
30995SOL    HW194992   6.103  10.634   4.300
30995SOL    HW294993   6.148  10.616   4.444
30996SOL     OW94994   5.901   4.708   3.466
30996SOL    HW194995   5.901   4.631   3.408
30996SOL    HW294996   5.934   4.675   3.549
30997SOL     OW94997   9.217   4.688   0.735
30997SOL    HW194998   9.222   4.605   0.782
30997SOL    HW294999   9.234   4.664   0.643
30998SOL     OW95000   2.313   8.129   6.087
30998SOL    HW195001   2.357   8.190   6.028
30998SOL    HW295002   2.249   8.182   6.133
30999SOL     OW95003   5.322   1.058   6.000
30999SOL    HW195004   5.272   0.983   5.967
30999SOL    HW295005   5.324   1.120   5.927
31000SOL     OW95006   0.967   2.192   6.647
31000SOL    HW195007   0.936   2.194   6.556
31000SOL    HW295008   1.031   2.121   6.649
31001SOL     OW95009   3.266   1.799   5.110
31001SOL    HW195010   3.331   1.771   5.174
31001SOL    HW295011   3.198   1.841   5.162
31002SOL     OW95012   8.145   4.037   2.364
31002SOL    HW195013   8.074   4.009   2.422
31002SOL    HW295014   8.190   4.106   2.412
31003SOL     OW95015   8.148   5.532  10.998
31003SOL    HW195016   8.226   5.477  10.986
31003SOL    HW295017   8.086   5.499  10.933
31004SOL     OW95018   5.679   1.191   3.977
31004SOL    HW195019   5.622   1.228   4.043
31004SOL    HW295020   5.754   1.250   3.973
31005SOL     OW95021   9.173   0.996   8.188
31005SOL    HW195022   9.213   0.968   8.105
31005SOL    HW295023   9.175   0.917   8.243
31006SOL     OW95024   3.741   7.476   4.458
31006SOL    HW195025   3.647   7.458   4.459
31006SOL    HW295026   3.780   7.398   4.498
31007SOL     OW95027   9.810   5.812   6.331
31007SOL    HW195028   9.873   5.880   6.354
31007SOL    HW295029   9.790   5.828   6.238
31008SOL     OW95030   0.434  10.834   6.327
31008SOL    HW195031   0.444  10.750   6.372
31008SOL    HW295032   0.348  10.828   6.285
31009SOL     OW95033  10.862   4.755  11.034
31009SOL    HW195034  10.953   4.757  11.004
31009SOL    HW295035  10.850   4.666  11.069
31010SOL     OW95036   8.630   1.887   7.744
31010SOL    HW195037   8.604   1.879   7.652
31010SOL    HW295038   8.585   1.965   7.775
31011SOL     OW95039   5.105   2.900   4.886
31011SOL    HW195040   5.013   2.898   4.860
31011SOL    HW295041   5.107   2.860   4.973
31012SOL     OW95042   4.699   1.405   4.134
31012SOL    HW195043   4.778   1.397   4.080
31012SOL    HW295044   4.633   1.354   4.087
31013SOL     OW95045   8.842   6.120   3.199
31013SOL    HW195046   8.881   6.041   3.237
31013SOL    HW295047   8.814   6.172   3.274
31014SOL     OW95048   8.744   9.274   8.376
31014SOL    HW195049   8.683   9.323   8.321
31014SOL    HW295050   8.782   9.208   8.317
31015SOL     OW95051   8.867   1.299   8.116
31015SOL    HW195052   8.918   1.378   8.134
31015SOL    HW295053   8.908   1.262   8.037
31016SOL     OW95054   5.381   4.910   9.441
31016SOL    HW195055   5.410   4.967   9.512
31016SOL    HW295056   5.288   4.930   9.431
31017SOL     OW95057   2.499   1.513   2.069
31017SOL    HW195058   2.435   1.563   2.119
31017SOL    HW295059   2.551   1.467   2.134
31018SOL     OW95060  10.304   0.805   7.541
31018SOL    HW195061  10.382   0.753   7.521
31018SOL    HW295062  10.281   0.781   7.630
31019SOL     OW95063   8.317   1.924   8.693
31019SOL    HW195064   8.352   1.838   8.717
31019SOL    HW295065   8.254   1.944   8.762
31020SOL     OW95066   8.797   7.715  10.190
31020SOL    HW195067   8.739   7.770  10.137
31020SOL    HW295068   8.859   7.678  10.127
31021SOL     OW95069   5.152   1.981   7.310
31021SOL    HW195070   5.071   1.958   7.355
31021SOL    HW295071   5.127   1.986   7.217
31022SOL     OW95072   7.825   1.150   7.110
31022SOL    HW195073   7.850   1.152   7.017
31022SOL    HW295074   7.793   1.238   7.128
31023SOL     OW95075   2.533   2.456   8.987
31023SOL    HW195076   2.487   2.393   9.042
31023SOL    HW295077   2.596   2.498   9.045
31024SOL     OW95078   2.707   9.134   2.218
31024SOL    HW195079   2.697   9.039   2.226
31024SOL    HW295080   2.718   9.165   2.308
31025SOL     OW95081  10.110   0.604   7.369
31025SOL    HW195082  10.199   0.569   7.376
31025SOL    HW295083  10.106   0.641   7.281
31026SOL     OW95084  10.758   4.195   6.224
31026SOL    HW195085  10.689   4.177   6.160
31026SOL    HW295086  10.769   4.290   6.221
31027SOL     OW95087   5.152   0.874   5.346
31027SOL    HW195088   5.067   0.836   5.323
31027SOL    HW295089   5.207   0.798   5.368
31028SOL     OW95090   5.357   2.452   5.685
31028SOL    HW195091   5.324   2.373   5.728
31028SOL    HW295092   5.279   2.506   5.672
31029SOL     OW95093   7.705   0.755   5.763
31029SOL    HW195094   7.704   0.770   5.857
31029SOL    HW295095   7.798   0.761   5.739
31030SOL     OW95096   1.259   4.585   2.443
31030SOL    HW195097   1.247   4.503   2.491
31030SOL    HW295098   1.173   4.604   2.406
31031SOL     OW95099   2.282   4.738   5.427
31031SOL    HW195100   2.284   4.793   5.505
31031SOL    HW295101   2.319   4.654   5.455
31032SOL     OW95102   2.404   4.017   7.804
31032SOL    HW195103   2.385   4.091   7.861
31032SOL    HW295104   2.486   3.980   7.838
31033SOL     OW95105   6.259   1.948   0.793
31033SOL    HW195106   6.284   1.899   0.871
31033SOL    HW295107   6.169   1.975   0.810
31034SOL     OW95108   4.097   0.893   8.763
31034SOL    HW195109   4.046   0.903   8.843
31034SOL    HW295110   4.164   0.961   8.767
31035SOL     OW95111   7.669   9.059   3.819
31035SOL    HW195112   7.732   9.108   3.872
31035SOL    HW295113   7.692   9.081   3.728
31036SOL     OW95114   6.062   9.522   9.196
31036SOL    HW195115   6.103   9.446   9.238
31036SOL    HW295116   5.968   9.510   9.211
31037SOL     OW95117   9.769  10.682   1.177
31037SOL    HW195118   9.702  10.682   1.245
31037SOL    HW295119   9.720  10.686   1.095
31038SOL     OW95120   1.163   3.160   7.345
31038SOL    HW195121   1.171   3.250   7.314
31038SOL    HW295122   1.071   3.151   7.371
31039SOL     OW95123   6.658   9.672   6.465
31039SOL    HW195124   6.673   9.623   6.546
31039SOL    HW295125   6.701   9.756   6.479
31040SOL     OW95126   6.369   5.058   9.219
31040SOL    HW195127   6.405   5.126   9.162
31040SOL    HW295128   6.445   5.026   9.268
31041SOL     OW95129   5.956   7.318   4.882
31041SOL    HW195130   5.925   7.253   4.819
31041SOL    HW295131   5.938   7.279   4.967
31042SOL     OW95132   8.888   8.152   8.603
31042SOL    HW195133   8.794   8.156   8.586
31042SOL    HW295134   8.923   8.233   8.566
31043SOL     OW95135   9.856   0.725   7.326
31043SOL    HW195136   9.914   0.756   7.256
31043SOL    HW295137   9.905   0.654   7.368
31044SOL     OW95138   0.821   6.667   8.443
31044SOL    HW195139   0.872   6.616   8.506
31044SOL    HW295140   0.861   6.754   8.445
31045SOL     OW95141   4.604   0.997   6.921
31045SOL    HW195142   4.570   0.923   6.972
31045SOL    HW295143   4.599   1.072   6.980
31046SOL     OW95144   8.651   6.045   1.779
31046SOL    HW195145   8.656   5.952   1.754
31046SOL    HW295146   8.698   6.091   1.709
31047SOL     OW95147   2.156   3.707   6.717
31047SOL    HW195148   2.224   3.774   6.719
31047SOL    HW295149   2.083   3.746   6.764
31048SOL     OW95150   3.313   5.359   5.686
31048SOL    HW195151   3.365   5.428   5.727
31048SOL    HW295152   3.237   5.349   5.743
31049SOL     OW95153   8.854   0.854   6.510
31049SOL    HW195154   8.871   0.895   6.425
31049SOL    HW295155   8.775   0.802   6.496
31050SOL     OW95156   6.658   8.829   6.259
31050SOL    HW195157   6.573   8.792   6.283
31050SOL    HW295158   6.668   8.806   6.166
31051SOL     OW95159   1.079   8.718   6.108
31051SOL    HW195160   1.091   8.809   6.083
31051SOL    HW295161   1.036   8.721   6.193
31052SOL     OW95162   5.019   3.509   3.878
31052SOL    HW195163   5.082   3.453   3.833
31052SOL    HW295164   5.071   3.557   3.941
31053SOL     OW95165   7.103   1.303   7.649
31053SOL    HW195166   7.019   1.302   7.694
31053SOL    HW295167   7.084   1.339   7.562
31054SOL     OW95168   5.172  10.917   5.908
31054SOL    HW195169   5.180  10.824   5.886
31054SOL    HW295170   5.085  10.942   5.876
31055SOL     OW95171  10.574   5.983   9.641
31055SOL    HW195172  10.590   5.937   9.558
31055SOL    HW295173  10.492   6.030   9.626
31056SOL     OW95174   3.367   4.241   5.155
31056SOL    HW195175   3.297   4.243   5.090
31056SOL    HW295176   3.374   4.331   5.185
31057SOL     OW95177   1.887   5.590   5.479
31057SOL    HW195178   1.941   5.543   5.543
31057SOL    HW295179   1.892   5.536   5.399
31058SOL     OW95180  10.592   3.267   7.125
31058SOL    HW195181  10.688   3.263   7.131
31058SOL    HW295182  10.569   3.354   7.157
31059SOL     OW95183   0.080   0.919  10.726
31059SOL    HW195184  -0.006   0.946  10.692
31059SOL    HW295185   0.067   0.910  10.820
31060SOL     OW95186   0.709   3.063   7.593
31060SOL    HW195187   0.620   3.058   7.558
31060SOL    HW295188   0.729   2.973   7.620
31061SOL     OW95189   2.320   8.855   8.011
31061SOL    HW195190   2.409   8.877   7.984
31061SOL    HW295191   2.264   8.908   7.954
31062SOL     OW95192   9.549   0.438   0.684
31062SOL    HW195193   9.471   0.383   0.674
31062SOL    HW295194   9.622   0.378   0.666
31063SOL     OW95195   5.547  10.878   9.227
31063SOL    HW195196   5.641  10.870   9.212
31063SOL    HW295197   5.509  10.871   9.139
31064SOL     OW95198   9.010   0.013   2.066
31064SOL    HW195199   8.972  -0.037   1.994
31064SOL    HW295200   8.938   0.066   2.099
31065SOL     OW95201   4.490  10.999   9.172
31065SOL    HW195202   4.451  10.985   9.258
31065SOL    HW295203   4.565  10.940   9.170
31066SOL     OW95204   9.245   5.621   7.416
31066SOL    HW195205   9.234   5.527   7.431
31066SOL    HW295206   9.324   5.644   7.465
31067SOL     OW95207   4.349   2.870   7.307
31067SOL    HW195208   4.430   2.917   7.328
31067SOL    HW295209   4.359   2.785   7.350
31068SOL     OW95210  10.866   1.735   9.302
31068SOL    HW195211  10.832   1.714   9.215
31068SOL    HW295212  10.814   1.681   9.361
31069SOL     OW95213   9.351   0.467   2.336
31069SOL    HW195214   9.441   0.496   2.350
31069SOL    HW295215   9.316   0.451   2.423
31070SOL     OW95216   9.147   6.752   2.823
31070SOL    HW195217   9.135   6.826   2.763
31070SOL    HW295218   9.216   6.700   2.782
31071SOL     OW95219   3.191   0.735   4.739
31071SOL    HW195220   3.269   0.737   4.683
31071SOL    HW295221   3.152   0.821   4.728
31072SOL     OW95222   6.828   0.961   6.953
31072SOL    HW195223   6.764   1.031   6.961
31072SOL    HW295224   6.822   0.913   7.035
31073SOL     OW95225   8.725   0.501   8.632
31073SOL    HW195226   8.681   0.421   8.660
31073SOL    HW295227   8.656   0.567   8.628
31074SOL     OW95228   7.400  10.088  10.840
31074SOL    HW195229   7.452  10.164  10.865
31074SOL    HW295230   7.452  10.013  10.869
31075SOL     OW95231   8.102   4.925   7.305
31075SOL    HW195232   8.083   4.968   7.222
31075SOL    HW295233   8.131   4.995   7.363
31076SOL     OW95234  11.082  10.983   8.319
31076SOL    HW195235  11.046  10.968   8.231
31076SOL    HW295236  11.029  11.054   8.355
31077SOL     OW95237   1.263   8.469   0.265
31077SOL    HW195238   1.285   8.436   0.352
31077SOL    HW295239   1.183   8.520   0.278
31078SOL     OW95240   8.090   1.566   6.274
31078SOL    HW195241   8.014   1.573   6.216
31078SOL    HW295242   8.130   1.482   6.250
31079SOL     OW95243   0.969  10.697   5.134
31079SOL    HW195244   0.886  10.653   5.114
31079SOL    HW295245   0.995  10.738   5.051
31080SOL     OW95246   6.814   9.097   8.018
31080SOL    HW195247   6.833   9.150   8.095
31080SOL    HW295248   6.803   9.160   7.947
31081SOL     OW95249   6.020   0.440   4.327
31081SOL    HW195250   5.944   0.409   4.277
31081SOL    HW295251   6.036   0.371   4.392
31082SOL     OW95252   8.055  10.660   1.260
31082SOL    HW195253   8.047  10.625   1.171
31082SOL    HW295254   8.068  10.583   1.315
31083SOL     OW95255   6.683   1.787   5.867
31083SOL    HW195256   6.591   1.771   5.889
31083SOL    HW295257   6.697   1.880   5.885
31084SOL     OW95258   9.046  10.024   3.820
31084SOL    HW195259   9.085  10.098   3.865
31084SOL    HW295260   9.111   9.954   3.829
31085SOL     OW95261   5.288   3.703   8.487
31085SOL    HW195262   5.245   3.727   8.569
31085SOL    HW295263   5.302   3.785   8.441
31086SOL     OW95264   7.540   7.507   8.319
31086SOL    HW195265   7.567   7.516   8.227
31086SOL    HW295266   7.447   7.487   8.314
31087SOL     OW95267   8.632   2.971   3.943
31087SOL    HW195268   8.633   2.879   3.914
31087SOL    HW295269   8.617   2.966   4.037
31088SOL     OW95270   6.318   3.493  10.021
31088SOL    HW195271   6.226   3.468  10.016
31088SOL    HW295272   6.330   3.524  10.110
31089SOL     OW95273   6.174   1.573   1.036
31089SOL    HW195274   6.142   1.550   0.948
31089SOL    HW295275   6.254   1.521   1.046
31090SOL     OW95276  10.505   9.734   7.601
31090SOL    HW195277  10.415   9.760   7.618
31090SOL    HW295278  10.559   9.802   7.642
31091SOL     OW95279   4.715   8.507   6.305
31091SOL    HW195280   4.810   8.499   6.317
31091SOL    HW295281   4.705   8.531   6.213
31092SOL     OW95282   7.625   6.182   0.061
31092SOL    HW195283   7.678   6.216   0.133
31092SOL    HW295284   7.548   6.239   0.059
31093SOL     OW95285   7.785  10.597   8.254
31093SOL    HW195286   7.712  10.535   8.261
31093SOL    HW295287   7.777  10.634   8.166
31094SOL     OW95288  10.750   5.868  10.815
31094SOL    HW195289  10.837   5.858  10.776
31094SOL    HW295290  10.690   5.862  10.740
31095SOL     OW95291  10.598  10.503   5.951
31095SOL    HW195292  10.663  10.568   5.979
31095SOL    HW295293  10.514  10.544   5.970
31096SOL     OW95294   0.890   4.073   9.763
31096SOL    HW195295   0.934   3.993   9.733
31096SOL    HW295296   0.958   4.120   9.812
31097SOL     OW95297   9.698   7.163   3.107
31097SOL    HW195298   9.621   7.200   3.064
31097SOL    HW295299   9.706   7.075   3.070
31098SOL     OW95300   9.833   1.386   4.052
31098SOL    HW195301   9.798   1.414   3.967
31098SOL    HW295302   9.877   1.303   4.033
31099SOL     OW95303   7.815   7.328  10.327
31099SOL    HW195304   7.780   7.384  10.258
31099SOL    HW295305   7.884   7.380  10.368
31100SOL     OW95306  11.046   0.141   8.809
31100SOL    HW195307  11.085   0.083   8.874
31100SOL    HW295308  10.961   0.101   8.789
31101SOL     OW95309   8.799  10.736   9.028
31101SOL    HW195310   8.710  10.768   9.017
31101SOL    HW295311   8.789  10.652   9.072
31102SOL     OW95312   9.696   6.973   8.233
31102SOL    HW195313   9.643   7.040   8.276
31102SOL    HW295314   9.786   7.006   8.237
31103SOL     OW95315   9.659   6.054  10.865
31103SOL    HW195316   9.752   6.041  10.847
31103SOL    HW295317   9.622   6.081  10.781
31104SOL     OW95318   8.891  10.222   7.425
31104SOL    HW195319   8.909  10.129   7.409
31104SOL    HW295320   8.802  10.223   7.458
31105SOL     OW95321   5.021   0.772  10.082
31105SOL    HW195322   4.967   0.788  10.004
31105SOL    HW295323   5.090   0.837  10.077
31106SOL     OW95324   8.378   0.284   0.357
31106SOL    HW195325   8.404   0.208   0.409
31106SOL    HW295326   8.284   0.274   0.345
31107SOL     OW95327   6.238   3.772   8.183
31107SOL    HW195328   6.195   3.739   8.104
31107SOL    HW295329   6.166   3.797   8.241
31108SOL     OW95330   9.061   1.727   1.204
31108SOL    HW195331   9.065   1.694   1.114
31108SOL    HW295332   9.139   1.691   1.246
31109SOL     OW95333  10.139   2.438   8.603
31109SOL    HW195334  10.080   2.369   8.634
31109SOL    HW295335  10.168   2.407   8.517
31110SOL     OW95336   1.309   1.630  11.027
31110SOL    HW195337   1.226   1.586  11.008
31110SOL    HW295338   1.327   1.608  11.118
31111SOL     OW95339   0.543   3.352   1.255
31111SOL    HW195340   0.603   3.408   1.206
31111SOL    HW295341   0.598   3.311   1.322
31112SOL     OW95342   1.562   0.829   9.069
31112SOL    HW195343   1.470   0.823   9.045
31112SOL    HW295344   1.609   0.816   8.986
31113SOL     OW95345   1.878   2.257   6.042
31113SOL    HW195346   1.876   2.352   6.037
31113SOL    HW295347   1.969   2.236   6.063
31114SOL     OW95348   8.628   1.162   9.712
31114SOL    HW195349   8.693   1.178   9.780
31114SOL    HW295350   8.661   1.086   9.664
31115SOL     OW95351  10.217   1.224   0.203
31115SOL    HW195352  10.168   1.163   0.147
31115SOL    HW295353  10.267   1.277   0.141
31116SOL     OW95354   9.313   8.854   3.047
31116SOL    HW195355   9.322   8.795   3.122
31116SOL    HW295356   9.403   8.875   3.022
31117SOL     OW95357  10.310   8.645   8.051
31117SOL    HW195358  10.283   8.600   8.131
31117SOL    HW295359  10.243   8.712   8.037
31118SOL     OW95360  10.076   8.495   6.029
31118SOL    HW195361  10.123   8.576   6.012
31118SOL    HW295362  10.029   8.511   6.111
31119SOL     OW95363   6.584  10.512   3.576
31119SOL    HW195364   6.563  10.560   3.495
31119SOL    HW295365   6.599  10.422   3.547
31120SOL     OW95366   9.249   8.305   2.711
31120SOL    HW195367   9.268   8.289   2.618
31120SOL    HW295368   9.167   8.258   2.727
31121SOL     OW95369   7.087   3.868   6.914
31121SOL    HW195370   7.154   3.827   6.859
31121SOL    HW295371   7.039   3.925   6.854
31122SOL     OW95372   6.364   1.863   2.043
31122SOL    HW195373   6.274   1.873   2.012
31122SOL    HW295374   6.369   1.918   2.120
31123SOL     OW95375   6.370   2.912   7.301
31123SOL    HW195376   6.326   2.837   7.341
31123SOL    HW295377   6.415   2.875   7.224
31124SOL     OW95378   4.623   7.256   9.702
31124SOL    HW195379   4.652   7.184   9.758
31124SOL    HW295380   4.653   7.232   9.614
31125SOL     OW95381   8.475   6.207   3.485
31125SOL    HW195382   8.405   6.271   3.473
31125SOL    HW295383   8.519   6.234   3.565
31126SOL     OW95384   7.027   2.367  10.270
31126SOL    HW195385   6.936   2.339  10.278
31126SOL    HW295386   7.069   2.297  10.220
31127SOL     OW95387   7.602   2.956   8.579
31127SOL    HW195388   7.610   2.951   8.674
31127SOL    HW295389   7.530   2.897   8.558
31128SOL     OW95390   3.214   9.587   1.620
31128SOL    HW195391   3.228   9.583   1.525
31128SOL    HW295392   3.277   9.652   1.651
31129SOL     OW95393  11.055   6.026   3.337
31129SOL    HW195394  11.098   6.109   3.354
31129SOL    HW295395  11.127   5.963   3.330
31130SOL     OW95396   0.090   4.527   7.164
31130SOL    HW195397   0.107   4.620   7.177
31130SOL    HW295398   0.176   4.485   7.173
31131SOL     OW95399   7.756   1.019  10.162
31131SOL    HW195400   7.704   0.970  10.098
31131SOL    HW295401   7.783   0.953  10.226
31132SOL     OW95402   5.841   9.445   7.545
31132SOL    HW195403   5.749   9.449   7.569
31132SOL    HW295404   5.850   9.507   7.473
31133SOL     OW95405   9.176   2.865   9.192
31133SOL    HW195406   9.180   2.769   9.191
31133SOL    HW295407   9.244   2.892   9.129
31134SOL     OW95408   8.663   7.058   7.765
31134SOL    HW195409   8.618   7.065   7.681
31134SOL    HW295410   8.756   7.057   7.742
31135SOL     OW95411  10.795   3.590  11.096
31135SOL    HW195412  10.805   3.656  11.164
31135SOL    HW295413  10.747   3.634  11.026
31136SOL     OW95414   1.192   4.114   5.186
31136SOL    HW195415   1.224   4.166   5.112
31136SOL    HW295416   1.269   4.100   5.241
31137SOL     OW95417   4.386   0.984   4.132
31137SOL    HW195418   4.313   0.941   4.087
31137SOL    HW295419   4.424   0.915   4.187
31138SOL     OW95420   7.778   7.418   4.944
31138SOL    HW195421   7.840   7.380   5.006
31138SOL    HW295422   7.820   7.407   4.858
31139SOL     OW95423   4.511   8.610   5.321
31139SOL    HW195424   4.440   8.641   5.265
31139SOL    HW295425   4.482   8.523   5.349
31140SOL     OW95426   1.927  10.395   5.560
31140SOL    HW195427   1.909  10.428   5.472
31140SOL    HW295428   1.841  10.390   5.602
31141SOL     OW95429   7.216   3.983   9.800
31141SOL    HW195430   7.276   3.911   9.820
31141SOL    HW295431   7.223   4.042   9.874
31142SOL     OW95432   7.653   8.112   6.892
31142SOL    HW195433   7.709   8.109   6.969
31142SOL    HW295434   7.672   8.031   6.845
31143SOL     OW95435   4.950   1.998   2.513
31143SOL    HW195436   4.958   1.944   2.591
31143SOL    HW295437   4.857   1.994   2.491
31144SOL     OW95438   8.764   0.660  10.829
31144SOL    HW195439   8.845   0.702  10.800
31144SOL    HW295440   8.788   0.612  10.908
31145SOL     OW95441   0.477   0.183   0.327
31145SOL    HW195442   0.435   0.097   0.332
31145SOL    HW295443   0.497   0.205   0.418
31146SOL     OW95444   9.243   9.930   3.585
31146SOL    HW195445   9.254   9.897   3.674
31146SOL    HW295446   9.300  10.007   3.580
31147SOL     OW95447   5.482  10.228   3.782
31147SOL    HW195448   5.495  10.229   3.876
31147SOL    HW295449   5.389  10.212   3.770
31148SOL     OW95450  10.262   5.609   7.814
31148SOL    HW195451  10.247   5.703   7.806
31148SOL    HW295452  10.181   5.575   7.852
31149SOL     OW95453   9.803   0.453   4.083
31149SOL    HW195454   9.849   0.384   4.035
31149SOL    HW295455   9.866   0.482   4.149
31150SOL     OW95456   6.796   3.331   3.401
31150SOL    HW195457   6.704   3.304   3.407
31150SOL    HW295458   6.845   3.249   3.400
31151SOL     OW95459   7.247   8.550   9.376
31151SOL    HW195460   7.342   8.542   9.369
31151SOL    HW295461   7.213   8.497   9.303
31152SOL     OW95462   2.434   9.641   8.652
31152SOL    HW195463   2.401   9.572   8.594
31152SOL    HW295464   2.483   9.593   8.719
31153SOL     OW95465   9.201  10.905   4.607
31153SOL    HW195466   9.211  10.940   4.695
31153SOL    HW295467   9.289  10.879   4.581
31154SOL     OW95468   4.423   3.488   0.303
31154SOL    HW195469   4.452   3.577   0.285
31154SOL    HW295470   4.485   3.456   0.368
31155SOL     OW95471   8.829   0.794   8.709
31155SOL    HW195472   8.874   0.806   8.792
31155SOL    HW295473   8.835   0.700   8.692
31156SOL     OW95474   3.037   4.069   9.176
31156SOL    HW195475   3.094   4.020   9.236
31156SOL    HW295476   3.086   4.149   9.156
31157SOL     OW95477  10.848   2.847   9.139
31157SOL    HW195478  10.897   2.901   9.076
31157SOL    HW295479  10.800   2.785   9.084
31158SOL     OW95480   3.321   3.850  10.587
31158SOL    HW195481   3.335   3.755  10.580
31158SOL    HW295482   3.356   3.885  10.505
31159SOL     OW95483   9.088   6.367   9.956
31159SOL    HW195484   9.004   6.400   9.986
31159SOL    HW295485   9.141   6.358  10.035
31160SOL     OW95486   9.182   2.338   7.800
31160SOL    HW195487   9.253   2.399   7.817
31160SOL    HW295488   9.143   2.368   7.718
31161SOL     OW95489   7.962   2.904   0.735
31161SOL    HW195490   7.956   2.917   0.640
31161SOL    HW295491   8.056   2.908   0.754
31162SOL     OW95492   2.545  10.523   3.350
31162SOL    HW195493   2.453  10.550   3.347
31162SOL    HW295494   2.568  10.505   3.259
31163SOL     OW95495   6.682   1.232   5.121
31163SOL    HW195496   6.754   1.293   5.104
31163SOL    HW295497   6.607   1.269   5.074
31164SOL     OW95498   6.901  10.915   9.235
31164SOL    HW195499   6.846  10.985   9.201
31164SOL    HW295500   6.856  10.884   9.313
31165SOL     OW95501   7.014   7.754   4.469
31165SOL    HW195502   7.031   7.723   4.558
31165SOL    HW295503   7.061   7.837   4.462
31166SOL     OW95504   8.320   7.927   2.724
31166SOL    HW195505   8.303   7.868   2.798
31166SOL    HW295506   8.372   7.874   2.663
31167SOL     OW95507   8.374   3.134  10.556
31167SOL    HW195508   8.429   3.107  10.482
31167SOL    HW295509   8.417   3.097  10.633
31168SOL     OW95510   0.546   2.667   7.865
31168SOL    HW195511   0.567   2.675   7.958
31168SOL    HW295512   0.470   2.609   7.862
31169SOL     OW95513   1.059   4.449   4.464
31169SOL    HW195514   1.134   4.486   4.511
31169SOL    HW295515   1.097   4.381   4.408
31170SOL     OW95516  10.623  11.085   1.331
31170SOL    HW195517  10.642  11.179   1.333
31170SOL    HW295518  10.679  11.051   1.261
31171SOL     OW95519   2.423   2.008  10.230
31171SOL    HW195520   2.415   2.082  10.169
31171SOL    HW295521   2.368   2.032  10.304
31172SOL     OW95522   6.675   2.071   2.787
31172SOL    HW195523   6.674   2.017   2.866
31172SOL    HW295524   6.594   2.048   2.742
31173SOL     OW95525   1.543   1.485   1.562
31173SOL    HW195526   1.459   1.531   1.563
31173SOL    HW295527   1.531   1.411   1.622
31174SOL     OW95528  10.937  11.036   6.793
31174SOL    HW195529  10.919  11.033   6.887
31174SOL    HW295530  11.010  11.098   6.785
31175SOL     OW95531   7.282   6.316   2.413
31175SOL    HW195532   7.357   6.263   2.440
31175SOL    HW295533   7.210   6.253   2.408
31176SOL     OW95534   8.073   3.272   0.147
31176SOL    HW195535   8.124   3.217   0.088
31176SOL    HW295536   8.020   3.210   0.197
31177SOL     OW95537   9.506   0.634   6.110
31177SOL    HW195538   9.593   0.598   6.128
31177SOL    HW295539   9.478   0.673   6.192
31178SOL     OW95540   8.696   8.756   0.094
31178SOL    HW195541   8.750   8.776   0.171
31178SOL    HW295542   8.720   8.822   0.030
31179SOL     OW95543   8.966  10.313   2.004
31179SOL    HW195544   8.943  10.220   2.002
31179SOL    HW295545   8.948  10.340   2.094
31180SOL     OW95546   7.576   0.248   9.159
31180SOL    HW195547   7.572   0.227   9.065
31180SOL    HW295548   7.489   0.226   9.192
31181SOL     OW95549   6.710   4.918   8.271
31181SOL    HW195550   6.788   4.866   8.251
31181SOL    HW295551   6.667   4.929   8.186
31182SOL     OW95552  10.299   0.770   0.614
31182SOL    HW195553  10.365   0.831   0.648
31182SOL    HW295554  10.339   0.683   0.624
31183SOL     OW95555   1.429   6.000   0.845
31183SOL    HW195556   1.440   5.925   0.786
31183SOL    HW295557   1.488   5.981   0.918
31184SOL     OW95558   7.849   0.149   0.598
31184SOL    HW195559   7.928   0.186   0.637
31184SOL    HW295560   7.881   0.095   0.526
31185SOL     OW95561   9.031   5.096   9.295
31185SOL    HW195562   9.093   5.166   9.275
31185SOL    HW295563   8.986   5.080   9.212
31186SOL     OW95564   4.202   3.365   8.202
31186SOL    HW195565   4.198   3.460   8.211
31186SOL    HW295566   4.263   3.350   8.129
31187SOL     OW95567   5.671   0.330  10.601
31187SOL    HW195568   5.613   0.359  10.671
31187SOL    HW295569   5.748   0.296  10.646
31188SOL     OW95570  10.137   1.936  10.291
31188SOL    HW195571  10.119   1.930  10.384
31188SOL    HW295572  10.074   1.876  10.250
31189SOL     OW95573   4.915  10.750   8.851
31189SOL    HW195574   4.841  10.802   8.881
31189SOL    HW295575   4.880  10.697   8.779
31190SOL     OW95576   2.829   0.546   9.515
31190SOL    HW195577   2.904   0.522   9.570
31190SOL    HW295578   2.764   0.478   9.532
31191SOL     OW95579   4.417   1.587   0.154
31191SOL    HW195580   4.336   1.571   0.202
31191SOL    HW295581   4.477   1.621   0.221
31192SOL     OW95582   8.422   5.610   1.171
31192SOL    HW195583   8.335   5.571   1.170
31192SOL    HW295584   8.416   5.684   1.111
31193SOL     OW95585   0.320   3.549   7.990
31193SOL    HW195586   0.259   3.497   7.937
31193SOL    HW295587   0.269   3.625   8.018
31194SOL     OW95588  10.791  10.442   7.305
31194SOL    HW195589  10.801  10.486   7.389
31194SOL    HW295590  10.697  10.443   7.289
31195SOL     OW95591  10.235   1.146   6.398
31195SOL    HW195592  10.306   1.109   6.450
31195SOL    HW295593  10.226   1.236   6.430
31196SOL     OW95594   6.056   1.852   6.791
31196SOL    HW195595   6.137   1.902   6.790
31196SOL    HW295596   5.987   1.918   6.794
31197SOL     OW95597   7.921   4.468   8.749
31197SOL    HW195598   7.908   4.378   8.779
31197SOL    HW295599   7.964   4.512   8.822
31198SOL     OW95600   8.880   3.586   3.981
31198SOL    HW195601   8.922   3.663   4.018
31198SOL    HW295602   8.802   3.573   4.035
31199SOL     OW95603   7.345   2.530   6.074
31199SOL    HW195604   7.331   2.608   6.021
31199SOL    HW295605   7.290   2.463   6.033
31200SOL     OW95606   4.909  10.577   7.656
31200SOL    HW195607   4.905  10.671   7.671
31200SOL    HW295608   4.999  10.553   7.679
31201SOL     OW95609   7.376   2.570  10.279
31201SOL    HW195610   7.299   2.625  10.271
31201SOL    HW295611   7.404   2.555  10.188
31202SOL     OW95612   9.946   0.525   5.253
31202SOL    HW195613   9.984   0.586   5.190
31202SOL    HW295614   9.935   0.443   5.204
31203SOL     OW95615   2.988   3.443   3.289
31203SOL    HW195616   3.046   3.519   3.285
31203SOL    HW295617   3.035   3.379   3.343
31204SOL     OW95618   7.908   3.741   1.349
31204SOL    HW195619   7.900   3.798   1.425
31204SOL    HW295620   7.919   3.800   1.275
31205SOL     OW95621   0.460   4.128   4.191
31205SOL    HW195622   0.373   4.089   4.188
31205SOL    HW295623   0.486   4.122   4.283
31206SOL     OW95624   6.001   3.721   4.258
31206SOL    HW195625   5.924   3.776   4.244
31206SOL    HW295626   6.041   3.712   4.171
31207SOL     OW95627   6.587   6.818   7.504
31207SOL    HW195628   6.502   6.831   7.462
31207SOL    HW295629   6.567   6.772   7.585
31208SOL     OW95630   6.742   9.255   3.021
31208SOL    HW195631   6.677   9.319   2.993
31208SOL    HW295632   6.825   9.288   2.987
31209SOL     OW95633   2.096   8.738   3.845
31209SOL    HW195634   2.070   8.646   3.852
31209SOL    HW295635   2.031   8.777   3.787
31210SOL     OW95636   9.545   1.877   8.609
31210SOL    HW195637   9.567   1.955   8.659
31210SOL    HW295638   9.549   1.905   8.517
31211SOL     OW95639   5.113   5.599   7.934
31211SOL    HW195640   5.110   5.691   7.911
31211SOL    HW295641   5.026   5.565   7.912
31212SOL     OW95642   8.847  10.138   5.191
31212SOL    HW195643   8.784  10.193   5.145
31212SOL    HW295644   8.892  10.197   5.250
31213SOL     OW95645   0.102   8.965   8.957
31213SOL    HW195646   0.089   8.892   8.895
31213SOL    HW295647   0.090   9.044   8.904
31214SOL     OW95648   7.193   2.013   4.120
31214SOL    HW195649   7.211   1.994   4.212
31214SOL    HW295650   7.234   1.941   4.072
31215SOL     OW95651   9.793   2.092   5.174
31215SOL    HW195652   9.759   2.012   5.133
31215SOL    HW295653   9.835   2.061   5.254
31216SOL     OW95654   9.066   2.366   6.154
31216SOL    HW195655   9.151   2.401   6.179
31216SOL    HW295656   9.009   2.442   6.148
31217SOL     OW95657   8.734   6.015   9.373
31217SOL    HW195658   8.766   6.067   9.446
31217SOL    HW295659   8.671   6.071   9.328
31218SOL     OW95660   8.637   9.956   0.514
31218SOL    HW195661   8.564   9.923   0.566
31218SOL    HW295662   8.623  10.050   0.509
31219SOL     OW95663   0.452   6.307   7.525
31219SOL    HW195664   0.394   6.230   7.526
31219SOL    HW295665   0.531   6.277   7.570
31220SOL     OW95666   6.791   8.022   4.610
31220SOL    HW195667   6.796   7.968   4.689
31220SOL    HW295668   6.731   7.974   4.552
31221SOL     OW95669   9.359   9.950   5.589
31221SOL    HW195670   9.281   9.940   5.644
31221SOL    HW295671   9.432   9.925   5.646
31222SOL     OW95672   1.462   3.846  10.408
31222SOL    HW195673   1.449   3.752  10.425
31222SOL    HW295674   1.551   3.851  10.372
31223SOL     OW95675   6.350   2.804   8.845
31223SOL    HW195676   6.401   2.847   8.913
31223SOL    HW295677   6.322   2.875   8.787
31224SOL     OW95678   2.467   8.508   5.710
31224SOL    HW195679   2.391   8.465   5.671
31224SOL    HW295680   2.535   8.500   5.643
31225SOL     OW95681   8.942   4.625  10.191
31225SOL    HW195682   8.928   4.594  10.280
31225SOL    HW295683   8.892   4.564  10.137
31226SOL     OW95684   1.080   1.479   8.750
31226SOL    HW195685   1.030   1.458   8.671
31226SOL    HW295686   1.134   1.554   8.725
31227SOL     OW95687   6.223   3.098   3.778
31227SOL    HW195688   6.230   3.012   3.736
31227SOL    HW295689   6.296   3.100   3.840
31228SOL     OW95690   6.089   2.571   0.969
31228SOL    HW195691   6.070   2.662   0.947
31228SOL    HW295692   6.019   2.521   0.927
31229SOL     OW95693   6.554   0.549   5.503
31229SOL    HW195694   6.624   0.600   5.462
31229SOL    HW295695   6.533   0.597   5.583
31230SOL     OW95696  10.545   0.948   8.142
31230SOL    HW195697  10.635   0.967   8.168
31230SOL    HW295698  10.493   1.017   8.181
31231SOL     OW95699   3.427   2.109   6.447
31231SOL    HW195700   3.439   2.146   6.359
31231SOL    HW295701   3.513   2.075   6.471
31232SOL     OW95702   8.491   8.467   0.151
31232SOL    HW195703   8.560   8.486   0.215
31232SOL    HW295704   8.437   8.546   0.150
31233SOL     OW95705   6.180   0.364   6.249
31233SOL    HW195706   6.098   0.392   6.208
31233SOL    HW295707   6.214   0.296   6.191
31234SOL     OW95708   0.029   4.099   0.160
31234SOL    HW195709   0.091   4.048   0.108
31234SOL    HW295710   0.028   4.055   0.246
31235SOL     OW95711  10.701   2.343   2.718
31235SOL    HW195712  10.667   2.331   2.806
31235SOL    HW295713  10.670   2.266   2.670
31236SOL     OW95714   4.569   0.787   6.153
31236SOL    HW195715   4.628   0.740   6.093
31236SOL    HW295716   4.608   0.874   6.161
31237SOL     OW95717  10.645   4.630   8.523
31237SOL    HW195718  10.711   4.656   8.459
31237SOL    HW295719  10.606   4.550   8.486
31238SOL     OW95720   5.779   5.888   8.525
31238SOL    HW195721   5.741   5.884   8.437
31238SOL    HW295722   5.704   5.906   8.582
31239SOL     OW95723   7.555   3.789   0.210
31239SOL    HW195724   7.561   3.721   0.277
31239SOL    HW295725   7.467   3.779   0.173
31240SOL     OW95726  11.056   1.109   3.201
31240SOL    HW195727  11.051   1.154   3.116
31240SOL    HW295728  11.064   1.016   3.178
31241SOL     OW95729   0.876   3.085   8.686
31241SOL    HW195730   0.921   3.137   8.752
31241SOL    HW295731   0.797   3.054   8.730
31242SOL     OW95732   1.409   7.982   1.689
31242SOL    HW195733   1.337   8.004   1.629
31242SOL    HW295734   1.370   7.987   1.776
31243SOL     OW95735   8.301   3.836   6.733
31243SOL    HW195736   8.386   3.871   6.708
31243SOL    HW295737   8.315   3.741   6.737
31244SOL     OW95738   5.902   4.330   8.090
31244SOL    HW195739   5.922   4.239   8.068
31244SOL    HW295740   5.891   4.373   8.005
31245SOL     OW95741   9.787   8.231   3.231
31245SOL    HW195742   9.758   8.157   3.285
31245SOL    HW295743   9.710   8.256   3.181
31246SOL     OW95744   5.881  10.820   4.978
31246SOL    HW195745   5.938  10.774   5.040
31246SOL    HW295746   5.861  10.755   4.911
31247SOL     OW95747   7.253   0.871   8.783
31247SOL    HW195748   7.330   0.820   8.809
31247SOL    HW295749   7.183   0.806   8.776
31248SOL     OW95750   9.529   0.031  10.559
31248SOL    HW195751   9.439   0.033  10.592
31248SOL    HW295752   9.522  -0.012  10.473
31249SOL     OW95753   4.390   8.609   8.947
31249SOL    HW195754   4.447   8.652   8.883
31249SOL    HW295755   4.320   8.571   8.894
31250SOL     OW95756   9.199   9.459   5.898
31250SOL    HW195757   9.158   9.522   5.839
31250SOL    HW295758   9.243   9.397   5.840
31251SOL     OW95759   7.127  11.033   9.420
31251SOL    HW195760   7.046  11.002   9.379
31251SOL    HW295761   7.187  11.049   9.347
31252SOL     OW95762   8.417   0.622   8.265
31252SOL    HW195763   8.358   0.595   8.335
31252SOL    HW295764   8.394   0.566   8.191
31253SOL     OW95765   1.155   9.334   3.497
31253SOL    HW195766   1.162   9.397   3.425
31253SOL    HW295767   1.066   9.299   3.489
31254SOL     OW95768   9.269   6.177   5.068
31254SOL    HW195769   9.336   6.114   5.039
31254SOL    HW295770   9.187   6.129   5.062
31255SOL     OW95771   6.589   5.899   6.162
31255SOL    HW195772   6.656   5.871   6.100
31255SOL    HW295773   6.508   5.896   6.112
31256SOL     OW95774   7.380   7.959   1.101
31256SOL    HW195775   7.429   8.000   1.030
31256SOL    HW295776   7.447   7.919   1.156
31257SOL     OW95777   9.770   7.717   4.649
31257SOL    HW195778   9.724   7.684   4.571
31257SOL    HW295779   9.817   7.794   4.618
31258SOL     OW95780   7.031   4.685   7.527
31258SOL    HW195781   7.110   4.660   7.478
31258SOL    HW295782   7.001   4.765   7.485
31259SOL     OW95783   8.283  10.132   7.522
31259SOL    HW195784   8.365  10.160   7.481
31259SOL    HW295785   8.219  10.133   7.451
31260SOL     OW95786   7.180   1.836   6.904
31260SOL    HW195787   7.194   1.743   6.924
31260SOL    HW295788   7.085   1.847   6.908
31261SOL     OW95789  10.074   7.614   4.123
31261SOL    HW195790  10.066   7.709   4.132
31261SOL    HW295791  10.026   7.593   4.043
31262SOL     OW95792   4.375   9.794   3.412
31262SOL    HW195793   4.350   9.886   3.405
31262SOL    HW295794   4.419   9.775   3.329
31263SOL     OW95795   6.978   4.609   1.009
31263SOL    HW195796   6.949   4.590   1.098
31263SOL    HW295797   6.943   4.696   0.989
31264SOL     OW95798   1.689   5.232   9.057
31264SOL    HW195799   1.616   5.192   9.010
31264SOL    HW295800   1.650   5.271   9.135
31265SOL     OW95801   5.519   6.079   4.948
31265SOL    HW195802   5.565   6.018   5.006
31265SOL    HW295803   5.583   6.101   4.880
31266SOL     OW95804   8.569   9.723   6.448
31266SOL    HW195805   8.564   9.685   6.536
31266SOL    HW295806   8.594   9.649   6.392
31267SOL     OW95807   7.549   9.693   6.494
31267SOL    HW195808   7.631   9.680   6.446
31267SOL    HW295809   7.483   9.653   6.438
31268SOL     OW95810   8.783   5.701  10.295
31268SOL    HW195811   8.743   5.787  10.301
31268SOL    HW295812   8.757   5.657  10.376
31269SOL     OW95813   2.712   7.133   8.670
31269SOL    HW195814   2.709   7.057   8.611
31269SOL    HW295815   2.672   7.203   8.619
31270SOL     OW95816   7.497   2.105   3.002
31270SOL    HW195817   7.431   2.047   3.040
31270SOL    HW295818   7.525   2.060   2.922
31271SOL     OW95819  10.910   2.310   7.558
31271SOL    HW195820  10.930   2.375   7.625
31271SOL    HW295821  10.962   2.337   7.482
31272SOL     OW95822   7.651  10.670   7.067
31272SOL    HW195823   7.606  10.646   6.986
31272SOL    HW295824   7.623  10.760   7.085
31273SOL     OW95825   7.582   4.127   2.609
31273SOL    HW195826   7.590   4.222   2.612
31273SOL    HW295827   7.521   4.105   2.679
31274SOL     OW95828   5.625  10.934   2.691
31274SOL    HW195829   5.546  10.970   2.651
31274SOL    HW295830   5.683  11.009   2.703
31275SOL     OW95831   5.202   3.606   4.066
31275SOL    HW195832   5.162   3.674   4.120
31275SOL    HW295833   5.247   3.549   4.128
31276SOL     OW95834   7.767   1.638   4.201
31276SOL    HW195835   7.828   1.651   4.273
31276SOL    HW295836   7.709   1.714   4.204
31277SOL     OW95837  10.561   3.776   9.197
31277SOL    HW195838  10.528   3.823   9.273
31277SOL    HW295839  10.656   3.790   9.199
31278SOL     OW95840   0.912   8.201   8.193
31278SOL    HW195841   0.906   8.142   8.268
31278SOL    HW295842   0.967   8.273   8.223
31279SOL     OW95843   6.767   3.163   9.051
31279SOL    HW195844   6.798   3.245   9.090
31279SOL    HW295845   6.841   3.102   9.061
31280SOL     OW95846   6.478   0.271   5.844
31280SOL    HW195847   6.451   0.343   5.900
31280SOL    HW295848   6.524   0.312   5.771
31281SOL     OW95849   7.330  10.684   4.370
31281SOL    HW195850   7.409  10.633   4.355
31281SOL    HW295851   7.356  10.774   4.350
31282SOL     OW95852   8.666   6.526   5.973
31282SOL    HW195853   8.679   6.451   5.915
31282SOL    HW295854   8.720   6.507   6.049
31283SOL     OW95855   1.636  10.605   1.848
31283SOL    HW195856   1.711  10.569   1.895
31283SOL    HW295857   1.579  10.530   1.834
31284SOL     OW95858   8.334   9.878   7.304
31284SOL    HW195859   8.409   9.937   7.307
31284SOL    HW295860   8.289   9.891   7.387
31285SOL     OW95861   7.940   9.100   9.987
31285SOL    HW195862   7.858   9.072   9.946
31285SOL    HW295863   7.950   9.042  10.063
31286SOL     OW95864   1.913   1.607  10.499
31286SOL    HW195865   1.833   1.586  10.547
31286SOL    HW295866   1.958   1.671  10.553
31287SOL     OW95867   5.416   8.453   0.706
31287SOL    HW195868   5.445   8.510   0.777
31287SOL    HW295869   5.321   8.448   0.716
31288SOL     OW95870   5.723   6.198   2.319
31288SOL    HW195871   5.776   6.164   2.391
31288SOL    HW295872   5.763   6.162   2.240
31289SOL     OW95873   3.354   5.200   0.227
31289SOL    HW195874   3.416   5.176   0.296
31289SOL    HW295875   3.407   5.249   0.164
31290SOL     OW95876   2.543   6.677   3.727
31290SOL    HW195877   2.573   6.735   3.657
31290SOL    HW295878   2.452   6.657   3.704
31291SOL     OW95879   2.806  10.410   4.623
31291SOL    HW195880   2.836  10.432   4.535
31291SOL    HW295881   2.881  10.428   4.679
31292SOL     OW95882   6.261   6.841   2.076
31292SOL    HW195883   6.344   6.865   2.117
31292SOL    HW295884   6.278   6.756   2.035
31293SOL     OW95885   2.613   2.040   2.047
31293SOL    HW195886   2.594   1.948   2.028
31293SOL    HW295887   2.632   2.042   2.140
31294SOL     OW95888   0.693   1.368   8.211
31294SOL    HW195889   0.762   1.311   8.245
31294SOL    HW295890   0.612   1.322   8.232
31295SOL     OW95891   8.188   1.412   1.664
31295SOL    HW195892   8.115   1.473   1.672
31295SOL    HW295893   8.232   1.415   1.748
31296SOL     OW95894   5.893   1.121   1.189
31296SOL    HW195895   5.862   1.143   1.277
31296SOL    HW295896   5.830   1.056   1.156
31297SOL     OW95897   4.389   1.249   0.779
31297SOL    HW195898   4.413   1.271   0.689
31297SOL    HW295899   4.432   1.165   0.795
31298SOL     OW95900   6.832   3.244   8.509
31298SOL    HW195901   6.804   3.163   8.465
31298SOL    HW295902   6.808   3.314   8.448
31299SOL     OW95903   0.932   2.091   1.634
31299SOL    HW195904   0.987   2.157   1.676
31299SOL    HW295905   0.911   2.128   1.548
31300SOL     OW95906   6.194   6.484   6.365
31300SOL    HW195907   6.109   6.508   6.402
31300SOL    HW295908   6.236   6.567   6.343
31301SOL     OW95909   4.645   3.173  10.315
31301SOL    HW195910   4.612   3.125  10.239
31301SOL    HW295911   4.740   3.167  10.308
31302SOL     OW95912   7.319  10.026   8.435
31302SOL    HW195913   7.357  10.105   8.473
31302SOL    HW295914   7.394   9.977   8.402
31303SOL     OW95915   9.923   9.880   4.555
31303SOL    HW195916   9.886   9.967   4.541
31303SOL    HW295917   9.944   9.876   4.648
31304SOL     OW95918   4.911   2.564   1.124
31304SOL    HW195919   4.917   2.628   1.195
31304SOL    HW295920   4.931   2.614   1.045
31305SOL     OW95921   8.472   4.193   0.621
31305SOL    HW195922   8.563   4.164   0.614
31305SOL    HW295923   8.442   4.199   0.530
31306SOL     OW95924   9.250   5.915   6.155
31306SOL    HW195925   9.269   5.954   6.070
31306SOL    HW295926   9.160   5.884   6.147
31307SOL     OW95927   4.178   8.591   9.814
31307SOL    HW195928   4.211   8.680   9.822
31307SOL    HW295929   4.201   8.565   9.724
31308SOL     OW95930   3.218   2.603   0.991
31308SOL    HW195931   3.293   2.637   0.943
31308SOL    HW295932   3.176   2.680   1.029
31309SOL     OW95933   8.693   3.682   9.797
31309SOL    HW195934   8.605   3.717   9.784
31309SOL    HW295935   8.738   3.699   9.714
31310SOL     OW95936   8.111   4.649   7.896
31310SOL    HW195937   8.076   4.731   7.862
31310SOL    HW295938   8.063   4.581   7.849
31311SOL     OW95939   8.565   4.815  10.363
31311SOL    HW195940   8.594   4.905  10.372
31311SOL    HW295941   8.624   4.777  10.298
31312SOL     OW95942   5.486   1.527   0.335
31312SOL    HW195943   5.542   1.599   0.363
31312SOL    HW295944   5.408   1.533   0.390
31313SOL     OW95945   5.147  10.231   1.158
31313SOL    HW195946   5.108  10.174   1.091
31313SOL    HW295947   5.180  10.306   1.109
31314SOL     OW95948   9.439   0.322   6.396
31314SOL    HW195949   9.440   0.240   6.345
31314SOL    HW295950   9.532   0.346   6.403
31315SOL     OW95951  10.488   0.129   2.971
31315SOL    HW195952  10.426   0.159   2.905
31315SOL    HW295953  10.519   0.045   2.937
31316SOL     OW95954   4.921   5.072  10.694
31316SOL    HW195955   4.870   5.003  10.650
31316SOL    HW295956   4.859   5.143  10.709
31317SOL     OW95957   6.856   4.694   6.017
31317SOL    HW195958   6.807   4.629   6.068
31317SOL    HW295959   6.919   4.642   5.966
31318SOL     OW95960   9.431   0.755   2.421
31318SOL    HW195961   9.525   0.772   2.415
31318SOL    HW295962   9.410   0.709   2.339
31319SOL     OW95963  10.047   6.922   0.749
31319SOL    HW195964  10.065   6.829   0.733
31319SOL    HW295965   9.966   6.922   0.799
31320SOL     OW95966   6.903   1.398   7.156
31320SOL    HW195967   6.831   1.338   7.174
31320SOL    HW295968   6.925   1.436   7.241
31321SOL     OW95969   7.729   5.037   0.354
31321SOL    HW195970   7.761   4.949   0.375
31321SOL    HW295971   7.809   5.089   0.341
31322SOL     OW95972   7.660  11.053   2.045
31322SOL    HW195973   7.729  11.117   2.026
31322SOL    HW295974   7.676  11.026   2.135
31323SOL     OW95975   8.838   3.662  10.714
31323SOL    HW195976   8.874   3.574  10.728
31323SOL    HW295977   8.895   3.719  10.765
31324SOL     OW95978   9.492   2.230  10.688
31324SOL    HW195979   9.585   2.252  10.679
31324SOL    HW295980   9.484   2.193  10.776
31325SOL     OW95981   9.543   7.678   5.461
31325SOL    HW195982   9.591   7.596   5.475
31325SOL    HW295983   9.599   7.728   5.401
31326SOL     OW95984   4.645   4.099   9.549
31326SOL    HW195985   4.589   4.036   9.504
31326SOL    HW295986   4.676   4.052   9.626
31327SOL     OW95987   8.389   6.819   5.736
31327SOL    HW195988   8.455   6.886   5.753
31327SOL    HW295989   8.345   6.805   5.820
31328SOL     OW95990   9.018   8.431   0.683
31328SOL    HW195991   9.004   8.348   0.728
31328SOL    HW295992   9.083   8.477   0.736
31329SOL     OW95993   6.412   9.650   3.728
31329SOL    HW195994   6.467   9.577   3.757
31329SOL    HW295995   6.327   9.633   3.767
31330SOL     OW95996   7.710   7.202  10.571
31330SOL    HW195997   7.762   7.183  10.493
31330SOL    HW295998   7.697   7.116  10.612
31331SOL     OW95999   6.995   2.787   4.326
31331SOL    HW196000   7.016   2.700   4.291
31331SOL    HW296001   7.080   2.825   4.349
31332SOL     OW96002   2.819   9.761  10.269
31332SOL    HW196003   2.907   9.723  10.272
31332SOL    HW296004   2.824   9.838  10.325
31333SOL     OW96005  10.909   5.174   5.847
31333SOL    HW196006  10.999   5.184   5.816
31333SOL    HW296007  10.904   5.083   5.876
31334SOL     OW96008  10.042   3.801   3.727
31334SOL    HW196009   9.963   3.846   3.756
31334SOL    HW296010  10.027   3.709   3.749
31335SOL     OW96011   0.762   6.630   5.738
31335SOL    HW196012   0.671   6.622   5.766
31335SOL    HW296013   0.802   6.687   5.803
31336SOL     OW96014   8.790   0.470   2.981
31336SOL    HW196015   8.823   0.407   2.916
31336SOL    HW296016   8.798   0.424   3.065
31337SOL     OW96017   7.564   5.011   6.900
31337SOL    HW196018   7.639   4.988   6.955
31337SOL    HW296019   7.557   4.939   6.837
31338SOL     OW96020   4.555   0.559   4.059
31338SOL    HW196021   4.536   0.568   4.152
31338SOL    HW296022   4.476   0.520   4.022
31339SOL     OW96023  10.814   4.963  10.117
31339SOL    HW196024  10.760   4.960  10.196
31339SOL    HW296025  10.897   4.922  10.143
31340SOL     OW96026   9.402   0.520   0.363
31340SOL    HW196027   9.389   0.614   0.361
31340SOL    HW296028   9.497   0.508   0.363
31341SOL     OW96029   3.943   0.283   9.623
31341SOL    HW196030   3.909   0.218   9.685
31341SOL    HW296031   3.938   0.366   9.670
31342SOL     OW96032  10.228  10.355  10.600
31342SOL    HW196033  10.174  10.281  10.572
31342SOL    HW296034  10.167  10.416  10.640
31343SOL     OW96035   3.966   0.132   9.313
31343SOL    HW196036   4.035   0.198   9.311
31343SOL    HW296037   3.886   0.180   9.293
31344SOL     OW96038   8.697   2.891   1.955
31344SOL    HW196039   8.669   2.806   1.919
31344SOL    HW296040   8.642   2.904   2.032
31345SOL     OW96041   7.727   3.515   7.837
31345SOL    HW196042   7.671   3.589   7.814
31345SOL    HW296043   7.814   3.553   7.847
31346SOL     OW96044   6.297   4.378   9.433
31346SOL    HW196045   6.378   4.343   9.469
31346SOL    HW296046   6.240   4.389   9.508
31347SOL     OW96047   0.672   7.100   2.582
31347SOL    HW196048   0.671   7.050   2.500
31347SOL    HW296049   0.692   7.190   2.555
31348SOL     OW96050   8.290   8.258   0.230
31348SOL    HW196051   8.210   8.279   0.181
31348SOL    HW296052   8.361   8.283   0.171
31349SOL     OW96053   0.876   6.856   9.121
31349SOL    HW196054   0.958   6.894   9.090
31349SOL    HW296055   0.859   6.900   9.204
31350SOL     OW96056   7.900   3.131   6.464
31350SOL    HW196057   7.984   3.085   6.454
31350SOL    HW296058   7.916   3.217   6.426
31351SOL     OW96059  10.472  10.034   9.847
31351SOL    HW196060  10.459  10.071   9.759
31351SOL    HW296061  10.438   9.944   9.840
31352SOL     OW96062   8.662   5.596   0.439
31352SOL    HW196063   8.694   5.508   0.460
31352SOL    HW296064   8.594   5.581   0.373
31353SOL     OW96065   8.317   4.419   1.400
31353SOL    HW196066   8.291   4.425   1.308
31353SOL    HW296067   8.367   4.337   1.405
31354SOL     OW96068   1.822   5.042   8.083
31354SOL    HW196069   1.858   5.010   8.000
31354SOL    HW296070   1.802   4.962   8.132
31355SOL     OW96071   8.960  10.754   9.275
31355SOL    HW196072   8.903  10.773   9.200
31355SOL    HW296073   9.040  10.719   9.235
31356SOL     OW96074   5.510   2.669   1.898
31356SOL    HW196075   5.573   2.597   1.905
31356SOL    HW296076   5.425   2.626   1.901
31357SOL     OW96077   5.540   3.379   3.216
31357SOL    HW196078   5.531   3.417   3.128
31357SOL    HW296079   5.498   3.442   3.274
31358SOL     OW96080  10.507   4.044   2.238
31358SOL    HW196081  10.479   3.953   2.250
31358SOL    HW296082  10.429   4.089   2.207
31359SOL     OW96083   0.169   2.306   4.710
31359SOL    HW196084   0.231   2.365   4.669
31359SOL    HW296085   0.093   2.307   4.651
31360SOL     OW96086   7.988   0.457  10.354
31360SOL    HW196087   8.042   0.535  10.342
31360SOL    HW296088   7.957   0.463  10.444
31361SOL     OW96089   5.563   3.024   0.377
31361SOL    HW196090   5.597   2.977   0.453
31361SOL    HW296091   5.626   3.094   0.362
31362SOL     OW96092   5.985  10.755   9.393
31362SOL    HW196093   5.897  10.718   9.395
31362SOL    HW296094   5.971  10.849   9.378
31363SOL     OW96095   4.498   5.063   9.501
31363SOL    HW196096   4.513   5.131   9.566
31363SOL    HW296097   4.420   5.092   9.453
31364SOL     OW96098   5.980   5.732   8.564
31364SOL    HW196099   5.958   5.689   8.646
31364SOL    HW296100   5.927   5.811   8.563
31365SOL     OW96101   0.921   1.041   6.652
31365SOL    HW196102   0.969   1.040   6.734
31365SOL    HW296103   0.829   1.047   6.677
31366SOL     OW96104   5.825   3.549   9.934
31366SOL    HW196105   5.914   3.581   9.946
31366SOL    HW296106   5.822   3.519   9.843
31367SOL     OW96107   3.748   7.903   9.406
31367SOL    HW196108   3.736   7.989   9.367
31367SOL    HW296109   3.722   7.914   9.497
31368SOL     OW96110   9.901   7.928   9.063
31368SOL    HW196111   9.827   7.902   9.117
31368SOL    HW296112   9.928   7.847   9.019
31369SOL     OW96113   7.809   9.597   0.967
31369SOL    HW196114   7.886   9.630   1.013
31369SOL    HW296115   7.844   9.551   0.891
31370SOL     OW96116  10.482   4.888   6.240
31370SOL    HW196117  10.547   4.832   6.197
31370SOL    HW296118  10.436   4.931   6.168
31371SOL     OW96119   4.555   0.683   8.112
31371SOL    HW196120   4.468   0.653   8.085
31371SOL    HW296121   4.602   0.603   8.135
31372SOL     OW96122   9.943   9.130   4.094
31372SOL    HW196123  10.008   9.188   4.132
31372SOL    HW296124   9.893   9.185   4.034
31373SOL     OW96125   9.554   8.459   0.510
31373SOL    HW196126   9.498   8.420   0.577
31373SOL    HW296127   9.506   8.535   0.479
31374SOL     OW96128   8.163  10.582   8.099
31374SOL    HW196129   8.077  10.592   8.058
31374SOL    HW296130   8.171  10.488   8.116
31375SOL     OW96131   0.519   4.074   1.728
31375SOL    HW196132   0.609   4.102   1.748
31375SOL    HW296133   0.470   4.091   1.808
31376SOL     OW96134   1.604   6.592   7.755
31376SOL    HW196135   1.610   6.509   7.706
31376SOL    HW296136   1.632   6.569   7.843
31377SOL     OW96137   4.519   8.996   1.421
31377SOL    HW196138   4.435   8.953   1.437
31377SOL    HW296139   4.552   8.955   1.341
31378SOL     OW96140   0.453   2.182   6.957
31378SOL    HW196141   0.477   2.141   7.040
31378SOL    HW296142   0.392   2.251   6.981
31379SOL     OW96143   4.324   1.567   5.912
31379SOL    HW196144   4.411   1.559   5.951
31379SOL    HW296145   4.296   1.656   5.932
31380SOL     OW96146   9.496   5.938   7.177
31380SOL    HW196147   9.470   5.909   7.264
31380SOL    HW296148   9.452   5.877   7.117
31381SOL     OW96149   4.210   8.794   8.507
31381SOL    HW196150   4.282   8.734   8.527
31381SOL    HW296151   4.253   8.877   8.486
31382SOL     OW96152   6.501   6.702   8.791
31382SOL    HW196153   6.440   6.747   8.733
31382SOL    HW296154   6.453   6.691   8.873
31383SOL     OW96155   7.589   8.136   9.958
31383SOL    HW196156   7.655   8.092   9.904
31383SOL    HW296157   7.636   8.162  10.037
31384SOL     OW96158   2.684   3.484   8.446
31384SOL    HW196159   2.629   3.552   8.407
31384SOL    HW296160   2.633   3.451   8.520
31385SOL     OW96161   9.663   0.203   8.615
31385SOL    HW196162   9.569   0.217   8.609
31385SOL    HW296163   9.687   0.230   8.703
31386SOL     OW96164   0.684   9.474  10.753
31386SOL    HW196165   0.733   9.499  10.674
31386SOL    HW296166   0.708   9.382  10.768
31387SOL     OW96167   4.186   1.167   2.356
31387SOL    HW196168   4.238   1.210   2.423
31387SOL    HW296169   4.250   1.116   2.305
31388SOL     OW96170   6.025   5.319   2.622
31388SOL    HW196171   6.027   5.306   2.527
31388SOL    HW296172   6.116   5.306   2.650
31389SOL     OW96173   5.083   5.662   4.790
31389SOL    HW196174   5.008   5.720   4.779
31389SOL    HW296175   5.135   5.702   4.859
31390SOL     OW96176  11.034   4.374   0.270
31390SOL    HW196177  11.120   4.338   0.247
31390SOL    HW296178  11.050   4.425   0.349
31391SOL     OW96179   8.407   7.045   0.899
31391SOL    HW196180   8.498   7.016   0.905
31391SOL    HW296181   8.394   7.064   0.806
31392SOL     OW96182   4.435   3.650   9.466
31392SOL    HW196183   4.531   3.652   9.473
31392SOL    HW296184   4.419   3.639   9.372
31393SOL     OW96185   1.260   2.668   0.335
31393SOL    HW196186   1.233   2.618   0.258
31393SOL    HW296187   1.298   2.748   0.299
31394SOL     OW96188   6.905   9.270   2.713
31394SOL    HW196189   6.916   9.322   2.792
31394SOL    HW296190   6.980   9.293   2.658
31395SOL     OW96191   1.909   1.252   1.470
31395SOL    HW196192   1.873   1.164   1.482
31395SOL    HW296193   1.882   1.300   1.548
31396SOL     OW96194   0.333   3.846   8.239
31396SOL    HW196195   0.415   3.892   8.222
31396SOL    HW296196   0.354   3.784   8.309
31397SOL     OW96197   3.146   6.768   9.488
31397SOL    HW196198   3.189   6.757   9.573
31397SOL    HW296199   3.099   6.851   9.495
31398SOL     OW96200   6.062  10.279   4.495
31398SOL    HW196201   6.128  10.224   4.538
31398SOL    HW296202   6.028  10.335   4.565
31399SOL     OW96203   9.831  10.623   4.194
31399SOL    HW196204   9.855  10.546   4.143
31399SOL    HW296205   9.836  10.696   4.131
31400SOL     OW96206   5.231   9.745   8.355
31400SOL    HW196207   5.235   9.663   8.404
31400SOL    HW296208   5.150   9.787   8.385
31401SOL     OW96209   1.967   7.740   5.832
31401SOL    HW196210   1.927   7.793   5.900
31401SOL    HW296211   2.061   7.746   5.849
31402SOL     OW96212   8.707   1.931   0.811
31402SOL    HW196213   8.777   1.866   0.801
31402SOL    HW296214   8.746   2.013   0.782
31403SOL     OW96215   0.328   0.206   7.076
31403SOL    HW196216   0.419   0.215   7.048
31403SOL    HW296217   0.333   0.175   7.166
31404SOL     OW96218   6.345   3.482   7.390
31404SOL    HW196219   6.301   3.403   7.423
31404SOL    HW296220   6.433   3.477   7.427
31405SOL     OW96221   8.215   9.161  10.407
31405SOL    HW196222   8.181   9.177  10.495
31405SOL    HW296223   8.283   9.227  10.394
31406SOL     OW96224   6.757   2.916   2.180
31406SOL    HW196225   6.678   2.899   2.231
31406SOL    HW296226   6.792   2.997   2.215
31407SOL     OW96227   1.689   0.055   2.261
31407SOL    HW196228   1.743  -0.023   2.243
31407SOL    HW296229   1.752   0.126   2.272
31408SOL     OW96230   7.217   4.476   0.239
31408SOL    HW196231   7.200   4.566   0.213
31408SOL    HW296232   7.304   4.456   0.202
31409SOL     OW96233   5.498   0.271   9.391
31409SOL    HW196234   5.465   0.315   9.312
31409SOL    HW296235   5.556   0.202   9.357
31410SOL     OW96236   0.466   4.941   1.754
31410SOL    HW196237   0.477   5.035   1.741
31410SOL    HW296238   0.402   4.934   1.824
31411SOL     OW96239  10.553   2.193   9.264
31411SOL    HW196240  10.542   2.105   9.301
31411SOL    HW296241  10.500   2.250   9.320
31412SOL     OW96242   6.539  10.706   0.884
31412SOL    HW196243   6.553  10.617   0.852
31412SOL    HW296244   6.449  10.726   0.859
31413SOL     OW96245   8.987  10.040   1.962
31413SOL    HW196246   9.082  10.024   1.960
31413SOL    HW296247   8.961  10.037   1.870
31414SOL     OW96248   7.115   4.227   0.149
31414SOL    HW196249   7.087   4.313   0.179
31414SOL    HW296250   7.209   4.237   0.132
31415SOL     OW96251   6.357   1.664   2.272
31415SOL    HW196252   6.371   1.721   2.196
31415SOL    HW296253   6.390   1.714   2.346
31416SOL     OW96254   4.174   0.026   0.933
31416SOL    HW196255   4.255   0.017   0.983
31416SOL    HW296256   4.152   0.119   0.940
31417SOL     OW96257   3.883   6.914   1.324
31417SOL    HW196258   3.867   6.939   1.233
31417SOL    HW296259   3.978   6.920   1.334
31418SOL     OW96260   9.625   0.473   2.361
31418SOL    HW196261   9.642   0.531   2.286
31418SOL    HW296262   9.674   0.393   2.341
31419SOL     OW96263   9.520   6.922   2.185
31419SOL    HW196264   9.565   6.854   2.134
31419SOL    HW296265   9.587   6.989   2.200
31420SOL     OW96266   9.567   4.700   0.640
31420SOL    HW196267   9.502   4.631   0.624
31420SOL    HW296268   9.612   4.709   0.556
31421SOL     OW96269   6.261   2.516   5.646
31421SOL    HW196270   6.293   2.601   5.617
31421SOL    HW296271   6.190   2.495   5.585
31422SOL     OW96272   7.235   5.404  10.839
31422SOL    HW196273   7.175   5.333  10.814
31422SOL    HW296274   7.273   5.433  10.756
31423SOL     OW96275   2.385   6.344   7.507
31423SOL    HW196276   2.332   6.275   7.546
31423SOL    HW296277   2.405   6.311   7.419
31424SOL     OW96278   6.847  10.501   0.506
31424SOL    HW196279   6.905  10.480   0.579
31424SOL    HW296280   6.907  10.523   0.434
31425SOL     OW96281   8.841   7.948   9.437
31425SOL    HW196282   8.839   8.040   9.462
31425SOL    HW296283   8.906   7.944   9.366
31426SOL     OW96284  10.442   2.815   3.062
31426SOL    HW196285  10.413   2.848   3.147
31426SOL    HW296286  10.536   2.799   3.073
31427SOL     OW96287   6.407  10.940   7.142
31427SOL    HW196288   6.375  11.030   7.152
31427SOL    HW296289   6.473  10.930   7.211
31428SOL     OW96290  10.581   1.293   8.859
31428SOL    HW196291  10.674   1.314   8.853
31428SOL    HW296292  10.541   1.372   8.893
31429SOL     OW96293   5.711   3.853   4.198
31429SOL    HW196294   5.659   3.806   4.132
31429SOL    HW296295   5.683   3.816   4.282
31430SOL     OW96296   9.402   4.064   0.833
31430SOL    HW196297   9.331   4.097   0.888
31430SOL    HW296298   9.411   4.129   0.763
31431SOL     OW96299   8.321   8.238   3.347
31431SOL    HW196300   8.284   8.306   3.403
31431SOL    HW296301   8.262   8.233   3.272
31432SOL     OW96302   6.738   1.425  10.035
31432SOL    HW196303   6.761   1.468   9.953
31432SOL    HW296304   6.684   1.488  10.081
31433SOL     OW96305   7.136   0.591   9.171
31433SOL    HW196306   7.148   0.674   9.216
31433SOL    HW296307   7.212   0.584   9.113
31434SOL     OW96308   5.621   3.143   3.926
31434SOL    HW196309   5.679   3.121   3.999
31434SOL    HW296310   5.535   3.111   3.953
31435SOL     OW96311   8.200   3.039   0.054
31435SOL    HW196312   8.220   3.033  -0.039
31435SOL    HW296313   8.153   2.958   0.074
31436SOL     OW96314   7.433   4.651  10.416
31436SOL    HW196315   7.527   4.663  10.401
31436SOL    HW296316   7.393   4.671  10.331
31437SOL     OW96317   8.459   1.177  10.244
31437SOL    HW196318   8.468   1.105  10.181
31437SOL    HW296319   8.497   1.143  10.325
31438SOL     OW96320   5.810   4.227   7.488
31438SOL    HW196321   5.882   4.287   7.506
31438SOL    HW296322   5.790   4.241   7.395
31439SOL     OW96323   6.744   9.912   8.634
31439SOL    HW196324   6.788   9.989   8.670
31439SOL    HW296325   6.714   9.863   8.710
31440SOL     OW96326   6.841   6.974   9.811
31440SOL    HW196327   6.774   6.961   9.878
31440SOL    HW296328   6.910   7.024   9.855
31441SOL     OW96329   6.538   7.598  10.653
31441SOL    HW196330   6.530   7.652  10.731
31441SOL    HW296331   6.518   7.509  10.683
31442SOL     OW96332   8.934   0.870   9.001
31442SOL    HW196333   8.905   0.957   8.976
31442SOL    HW296334   9.028   0.879   9.016
31443SOL     OW96335  10.050   3.910  10.397
31443SOL    HW196336  10.031   3.817  10.414
31443SOL    HW296337  10.146   3.914  10.392
31444SOL     OW96338   1.685   0.642   6.750
31444SOL    HW196339   1.630   0.699   6.696
31444SOL    HW296340   1.726   0.582   6.687
31445SOL     OW96341   5.816   0.412  10.320
31445SOL    HW196342   5.883   0.452  10.376
31445SOL    HW296343   5.738   0.407  10.375
31446SOL     OW96344   6.027   1.433   5.224
31446SOL    HW196345   5.990   1.428   5.312
31446SOL    HW296346   5.982   1.507   5.183
31447SOL     OW96347   6.774   2.263   4.500
31447SOL    HW196348   6.734   2.282   4.415
31447SOL    HW296349   6.756   2.340   4.553
31448SOL     OW96350   2.684   4.892   6.375
31448SOL    HW196351   2.725   4.843   6.446
31448SOL    HW296352   2.686   4.831   6.300
31449SOL     OW96353   4.352   7.638   1.891
31449SOL    HW196354   4.277   7.581   1.909
31449SOL    HW296355   4.384   7.664   1.977
31450SOL     OW96356   4.391   1.961   1.630
31450SOL    HW196357   4.320   2.018   1.600
31450SOL    HW296358   4.428   2.005   1.706
31451SOL     OW96359   9.661   2.528   4.368
31451SOL    HW196360   9.598   2.591   4.402
31451SOL    HW296361   9.746   2.571   4.378
31452SOL     OW96362  10.214   4.669   0.630
31452SOL    HW196363  10.129   4.625   0.625
31452SOL    HW296364  10.220   4.718   0.548
31453SOL     OW96365   8.090   0.880  10.736
31453SOL    HW196366   8.073   0.878  10.642
31453SOL    HW296367   8.054   0.963  10.765
31454SOL     OW96368  10.627  11.065   8.002
31454SOL    HW196369  10.612  11.129   8.071
31454SOL    HW296370  10.719  11.076   7.979
31455SOL     OW96371  10.499   9.322   6.183
31455SOL    HW196372  10.431   9.355   6.125
31455SOL    HW296373  10.454   9.260   6.240
31456SOL     OW96374   3.824   0.414   7.700
31456SOL    HW196375   3.887   0.353   7.739
31456SOL    HW296376   3.738   0.379   7.724
31457SOL     OW96377   5.118   1.031   5.551
31457SOL    HW196378   5.132   0.958   5.490
31457SOL    HW296379   5.196   1.031   5.606
31458SOL     OW96380   3.319   4.604   8.201
31458SOL    HW196381   3.242   4.623   8.255
31458SOL    HW296382   3.372   4.683   8.206
31459SOL     OW96383   7.835   4.052   1.660
31459SOL    HW196384   7.919   4.007   1.646
31459SOL    HW296385   7.773   4.003   1.605
31460SOL     OW96386   1.315   4.614   5.779
31460SOL    HW196387   1.356   4.663   5.850
31460SOL    HW296388   1.240   4.570   5.819
31461SOL     OW96389   7.774   1.201   1.558
31461SOL    HW196390   7.688   1.242   1.571
31461SOL    HW296391   7.754   1.112   1.529
31462SOL     OW96392   9.525   8.305   0.850
31462SOL    HW196393   9.614   8.322   0.819
31462SOL    HW296394   9.536   8.244   0.923
31463SOL     OW96395   0.899   7.233  10.939
31463SOL    HW196396   0.850   7.179  10.877
31463SOL    HW296397   0.991   7.222  10.913
31464SOL     OW96398   8.545   8.096   9.684
31464SOL    HW196399   8.510   8.021   9.635
31464SOL    HW296400   8.481   8.166   9.670
31465SOL     OW96401   9.196   4.458   0.887
31465SOL    HW196402   9.148   4.376   0.876
31465SOL    HW296403   9.149   4.504   0.956
31466SOL     OW96404   5.519   5.017   4.533
31466SOL    HW196405   5.540   4.948   4.596
31466SOL    HW296406   5.601   5.064   4.520
31467SOL     OW96407   6.525   5.181  10.314
31467SOL    HW196408   6.537   5.121  10.240
31467SOL    HW296409   6.437   5.162  10.346
31468SOL     OW96410   3.740   0.885   7.847
31468SOL    HW196411   3.788   0.968   7.849
31468SOL    HW296412   3.795   0.827   7.794
31469SOL     OW96413  10.228   3.929   0.012
31469SOL    HW196414  10.167   3.863   0.046
31469SOL    HW296415  10.308   3.879  -0.008
31470SOL     OW96416   8.753   2.260   5.077
31470SOL    HW196417   8.721   2.234   5.163
31470SOL    HW296418   8.818   2.193   5.054
31471SOL     OW96419   9.420   2.973   6.365
31471SOL    HW196420   9.451   2.998   6.451
31471SOL    HW296421   9.456   3.039   6.306
31472SOL     OW96422  10.139   5.305  10.018
31472SOL    HW196423  10.216   5.301   9.961
31472SOL    HW296424  10.119   5.398  10.025
31473SOL     OW96425   8.733   6.505   0.470
31473SOL    HW196426   8.794   6.490   0.398
31473SOL    HW296427   8.696   6.591   0.453
31474SOL     OW96428  10.679   7.669   6.511
31474SOL    HW196429  10.727   7.751   6.503
31474SOL    HW296430  10.591   7.689   6.479
31475SOL     OW96431   5.379   4.874  10.027
31475SOL    HW196432   5.337   4.919  10.100
31475SOL    HW296433   5.455   4.928  10.005
31476SOL     OW96434   4.541   1.876   7.863
31476SOL    HW196435   4.540   1.880   7.958
31476SOL    HW296436   4.479   1.943   7.835
31477SOL     OW96437   6.727   5.052   7.661
31477SOL    HW196438   6.802   5.099   7.625
31477SOL    HW296439   6.673   5.031   7.585
31478SOL     OW96440   8.560  10.831  10.315
31478SOL    HW196441   8.645  10.798  10.344
31478SOL    HW296442   8.497  10.771  10.353
31479SOL     OW96443   5.657   9.570   2.545
31479SOL    HW196444   5.605   9.490   2.535
31479SOL    HW296445   5.746   9.543   2.522
31480SOL     OW96446   8.077   5.939  10.589
31480SOL    HW196447   8.039   5.936  10.676
31480SOL    HW296448   8.169   5.914  10.601
31481SOL     OW96449   8.175   8.457   5.062
31481SOL    HW196450   8.259   8.414   5.043
31481SOL    HW296451   8.190   8.504   5.144
31482SOL     OW96452  11.062   7.170  10.165
31482SOL    HW196453  11.144   7.218  10.155
31482SOL    HW296454  11.088   7.086  10.204
31483SOL     OW96455   7.393  10.248   4.668
31483SOL    HW196456   7.415  10.341   4.669
31483SOL    HW296457   7.299  10.246   4.652
31484SOL     OW96458   6.369  10.343   2.638
31484SOL    HW196459   6.447  10.395   2.659
31484SOL    HW296460   6.380  10.320   2.545
31485SOL     OW96461   5.491   5.551   3.114
31485SOL    HW196462   5.537   5.554   3.198
31485SOL    HW296463   5.482   5.642   3.088
31486SOL     OW96464   3.863   6.128   4.827
31486SOL    HW196465   3.817   6.189   4.769
31486SOL    HW296466   3.793   6.080   4.872
31487SOL     OW96467   6.994   3.391   1.905
31487SOL    HW196468   6.964   3.394   1.814
31487SOL    HW296469   6.967   3.475   1.942
31488SOL     OW96470   6.321   1.841   4.368
31488SOL    HW196471   6.373   1.797   4.300
31488SOL    HW296472   6.381   1.905   4.405
31489SOL     OW96473   5.247  10.310   7.199
31489SOL    HW196474   5.305  10.331   7.271
31489SOL    HW296475   5.280  10.362   7.125
31490SOL     OW96476  10.731   3.773  10.902
31490SOL    HW196477  10.691   3.818  10.827
31490SOL    HW296478  10.811   3.822  10.920
31491SOL     OW96479   0.843   1.973  10.438
31491SOL    HW196480   0.775   1.984  10.372
31491SOL    HW296481   0.858   1.878  10.440
31492SOL     OW96482   8.912  10.115   0.439
31492SOL    HW196483   8.841  10.155   0.488
31492SOL    HW296484   8.991  10.136   0.489
31493SOL     OW96485  10.795   9.001   7.609
31493SOL    HW196486  10.719   8.964   7.563
31493SOL    HW296487  10.857   8.928   7.615
31494SOL     OW96488   4.924   2.318   2.682
31494SOL    HW196489   4.967   2.322   2.596
31494SOL    HW296490   4.878   2.401   2.690
31495SOL     OW96491   9.775   2.853   3.684
31495SOL    HW196492   9.851   2.812   3.643
31495SOL    HW296493   9.732   2.900   3.612
31496SOL     OW96494   0.509   8.155  10.158
31496SOL    HW196495   0.564   8.232  10.147
31496SOL    HW296496   0.420   8.187  10.146
31497SOL     OW96497   6.951   7.955  10.346
31497SOL    HW196498   6.871   7.902  10.348
31497SOL    HW296499   6.931   8.031  10.401
31498SOL     OW96500   2.151   6.598   6.963
31498SOL    HW196501   2.070   6.623   6.918
31498SOL    HW296502   2.127   6.595   7.055
31499SOL     OW96503  10.865   3.414   2.074
31499SOL    HW196504  10.907   3.422   2.159
31499SOL    HW296505  10.784   3.367   2.092
31500SOL     OW96506   8.743   0.965   6.764
31500SOL    HW196507   8.667   0.907   6.773
31500SOL    HW296508   8.787   0.935   6.684
31501SOL     OW96509   7.274   7.419   2.500
31501SOL    HW196510   7.183   7.389   2.495
31501SOL    HW296511   7.324   7.340   2.522
31502SOL     OW96512   4.491   1.122   1.318
31502SOL    HW196513   4.432   1.187   1.355
31502SOL    HW296514   4.498   1.054   1.385
31503SOL     OW96515   4.752   1.593   4.961
31503SOL    HW196516   4.808   1.593   5.039
31503SOL    HW296517   4.779   1.670   4.911
31504SOL     OW96518   6.416   5.126   5.565
31504SOL    HW196519   6.415   5.091   5.654
31504SOL    HW296520   6.385   5.053   5.511
31505SOL     OW96521   0.133   8.781   6.438
31505SOL    HW196522   0.216   8.771   6.392
31505SOL    HW296523   0.067   8.782   6.368
31506SOL     OW96524   7.192   5.952   3.368
31506SOL    HW196525   7.260   5.938   3.301
31506SOL    HW296526   7.207   5.882   3.431
31507SOL     OW96527  10.050   4.398   2.926
31507SOL    HW196528   9.999   4.392   2.845
31507SOL    HW296529  10.105   4.319   2.925
31508SOL     OW96530   6.368   4.077   6.432
31508SOL    HW196531   6.464   4.070   6.434
31508SOL    HW296532   6.345   4.116   6.516
31509SOL     OW96533   7.468   7.626   4.341
31509SOL    HW196534   7.406   7.668   4.282
31509SOL    HW296535   7.554   7.656   4.311
31510SOL     OW96536   0.054   0.941   2.179
31510SOL    HW196537   0.092   1.012   2.128
31510SOL    HW296538   0.065   0.968   2.270
31511SOL     OW96539   6.543   3.873   6.126
31511SOL    HW196540   6.582   3.849   6.041
31511SOL    HW296541   6.456   3.834   6.123
31512SOL     OW96542   5.397   0.294   0.489
31512SOL    HW196543   5.371   0.241   0.564
31512SOL    HW296544   5.484   0.326   0.511
31513SOL     OW96545   9.206   6.023   2.361
31513SOL    HW196546   9.137   6.085   2.336
31513SOL    HW296547   9.175   5.984   2.443
31514SOL     OW96548   6.033   4.045   4.492
31514SOL    HW196549   5.969   4.060   4.422
31514SOL    HW296550   6.115   4.079   4.457
31515SOL     OW96551   1.197  10.585   2.044
31515SOL    HW196552   1.222  10.532   1.968
31515SOL    HW296553   1.102  10.590   2.039
31516SOL     OW96554   9.706   0.196   0.664
31516SOL    HW196555   9.630   0.172   0.611
31516SOL    HW296556   9.777   0.143   0.628
31517SOL     OW96557  10.917   0.018   1.581
31517SOL    HW196558  10.983  -0.052   1.585
31517SOL    HW296559  10.944   0.072   1.507
31518SOL     OW96560   7.640   0.348   1.604
31518SOL    HW196561   7.624   0.432   1.646
31518SOL    HW296562   7.734   0.333   1.614
31519SOL     OW96563   4.789   2.345   9.567
31519SOL    HW196564   4.807   2.251   9.576
31519SOL    HW296565   4.852   2.387   9.625
31520SOL     OW96566   6.368   0.894   3.252
31520SOL    HW196567   6.371   0.813   3.303
31520SOL    HW296568   6.320   0.870   3.172
31521SOL     OW96569  10.832   6.767   6.867
31521SOL    HW196570  10.755   6.714   6.888
31521SOL    HW296571  10.827   6.779   6.772
31522SOL     OW96572   7.133   3.326   0.281
31522SOL    HW196573   7.086   3.402   0.247
31522SOL    HW296574   7.164   3.280   0.203
31523SOL     OW96575   3.987   5.556   1.762
31523SOL    HW196576   4.049   5.620   1.727
31523SOL    HW296577   3.907   5.572   1.713
31524SOL     OW96578   0.125   2.297  10.924
31524SOL    HW196579   0.114   2.299  11.019
31524SOL    HW296580   0.211   2.336  10.909
31525SOL     OW96581   5.440  10.001   8.819
31525SOL    HW196582   5.485   9.992   8.735
31525SOL    HW296583   5.396   9.917   8.832
31526SOL     OW96584   8.962   0.473  10.600
31526SOL    HW196585   8.896   0.417  10.641
31526SOL    HW296586   8.955   0.454  10.506
31527SOL     OW96587   8.142   5.530   1.412
31527SOL    HW196588   8.051   5.528   1.441
31527SOL    HW296589   8.180   5.605   1.457
31528SOL     OW96590   4.805   2.751   0.372
31528SOL    HW196591   4.790   2.791   0.286
31528SOL    HW296592   4.743   2.795   0.430
31529SOL     OW96593   4.263  10.442   9.558
31529SOL    HW196594   4.356  10.463   9.551
31529SOL    HW296595   4.248  10.431   9.651
31530SOL     OW96596   7.953   3.123   8.212
31530SOL    HW196597   7.925   3.083   8.294
31530SOL    HW296598   7.943   3.053   8.146
31531SOL     OW96599   2.308   5.878   4.766
31531SOL    HW196600   2.273   5.907   4.681
31531SOL    HW296601   2.358   5.953   4.798
31532SOL     OW96602   7.220   1.684   0.262
31532SOL    HW196603   7.303   1.647   0.293
31532SOL    HW296604   7.180   1.722   0.340
31533SOL     OW96605   6.286   3.321   3.528
31533SOL    HW196606   6.228   3.265   3.579
31533SOL    HW296607   6.337   3.369   3.593
31534SOL     OW96608   6.617   9.768   5.912
31534SOL    HW196609   6.547   9.717   5.953
31534SOL    HW296610   6.688   9.705   5.899
31535SOL     OW96611   9.932   1.063   4.080
31535SOL    HW196612   9.953   1.064   3.986
31535SOL    HW296613   9.921   0.970   4.101
31536SOL     OW96614   9.625   7.081   9.129
31536SOL    HW196615   9.617   7.007   9.190
31536SOL    HW296616   9.535   7.108   9.112
31537SOL     OW96617   3.977   2.445   7.796
31537SOL    HW196618   4.069   2.463   7.816
31537SOL    HW296619   3.964   2.354   7.824
31538SOL     OW96620   7.513   9.161   2.710
31538SOL    HW196621   7.535   9.081   2.661
31538SOL    HW296622   7.418   9.170   2.699
31539SOL     OW96623   1.115   0.134   8.917
31539SOL    HW196624   1.149   0.177   8.838
31539SOL    HW296625   1.111   0.203   8.982
31540SOL     OW96626   6.604   4.966   3.208
31540SOL    HW196627   6.549   4.888   3.201
31540SOL    HW296628   6.545   5.035   3.237
31541SOL     OW96629   9.852   3.523   4.309
31541SOL    HW196630   9.893   3.505   4.393
31541SOL    HW296631   9.764   3.485   4.316
31542SOL     OW96632   2.955   4.437   5.066
31542SOL    HW196633   2.988   4.514   5.112
31542SOL    HW296634   2.862   4.435   5.086
31543SOL     OW96635   6.499   8.637   6.001
31543SOL    HW196636   6.547   8.713   5.969
31543SOL    HW296637   6.566   8.583   6.044
31544SOL     OW96638   7.532   7.248   6.257
31544SOL    HW196639   7.574   7.169   6.222
31544SOL    HW296640   7.516   7.302   6.180
31545SOL     OW96641   4.825   0.827   9.891
31545SOL    HW196642   4.786   0.753   9.845
31545SOL    HW296643   4.751   0.881   9.918
31546SOL     OW96644   9.857   2.895   2.781
31546SOL    HW196645   9.873   2.960   2.849
31546SOL    HW296646   9.942   2.853   2.767
31547SOL     OW96647  10.089  10.382  11.076
31547SOL    HW196648  10.159  10.316  11.077
31547SOL    HW296649  10.135  10.465  11.082
31548SOL     OW96650   4.219   7.317   4.687
31548SOL    HW196651   4.310   7.329   4.659
31548SOL    HW296652   4.226   7.273   4.771
31549SOL     OW96653   6.281   7.427   6.907
31549SOL    HW196654   6.236   7.415   6.823
31549SOL    HW296655   6.305   7.338   6.934
31550SOL     OW96656   6.705   5.540   0.503
31550SOL    HW196657   6.796   5.529   0.476
31550SOL    HW296658   6.680   5.455   0.539
31551SOL     OW96659   5.427   4.180   0.234
31551SOL    HW196660   5.415   4.122   0.309
31551SOL    HW296661   5.344   4.176   0.187
31552SOL     OW96662   0.783   3.867   1.265
31552SOL    HW196663   0.707   3.848   1.210
31552SOL    HW296664   0.792   3.962   1.262
31553SOL     OW96665   9.942   2.523   5.273
31553SOL    HW196666  10.021   2.480   5.307
31553SOL    HW296667   9.960   2.616   5.281
31554SOL     OW96668   8.438   6.667   6.881
31554SOL    HW196669   8.467   6.664   6.972
31554SOL    HW296670   8.519   6.676   6.830
31555SOL     OW96671   1.934   3.597   2.276
31555SOL    HW196672   1.949   3.508   2.309
31555SOL    HW296673   2.006   3.649   2.312
31556SOL     OW96674   8.898  11.052   0.469
31556SOL    HW196675   8.830  10.985   0.466
31556SOL    HW296676   8.980  11.003   0.475
31557SOL     OW96677   7.457   9.058   0.416
31557SOL    HW196678   7.378   9.051   0.469
31557SOL    HW296679   7.426   9.087   0.330
31558SOL     OW96680   0.270   6.083   9.614
31558SOL    HW196681   0.360   6.056   9.595
31558SOL    HW296682   0.253   6.155   9.553
31559SOL     OW96683   9.471   3.767   0.535
31559SOL    HW196684   9.440   3.845   0.490
31559SOL    HW296685   9.560   3.788   0.562
31560SOL     OW96686   4.216   1.532  10.454
31560SOL    HW196687   4.129   1.531  10.493
31560SOL    HW296688   4.229   1.622  10.425
31561SOL     OW96689  10.195  10.653   9.856
31561SOL    HW196690  10.198  10.562   9.827
31561SOL    HW296691  10.253  10.699   9.795
31562SOL     OW96692   5.476   5.623   9.380
31562SOL    HW196693   5.400   5.679   9.362
31562SOL    HW296694   5.471   5.554   9.313
31563SOL     OW96695   5.683   2.641   0.354
31563SOL    HW196696   5.624   2.636   0.429
31563SOL    HW296697   5.643   2.706   0.296
31564SOL     OW96698   6.566   3.834  10.946
31564SOL    HW196699   6.628   3.792  10.885
31564SOL    HW296700   6.620   3.860  11.020
31565SOL     OW96701   8.415   1.262   0.367
31565SOL    HW196702   8.344   1.241   0.306
31565SOL    HW296703   8.490   1.213   0.333
31566SOL     OW96704   9.145   9.290   4.646
31566SOL    HW196705   9.124   9.294   4.739
31566SOL    HW296706   9.231   9.249   4.642
31567SOL     OW96707   2.151   6.480   1.634
31567SOL    HW196708   2.194   6.512   1.554
31567SOL    HW296709   2.058   6.497   1.619
31568SOL     OW96710   7.709   7.410   2.569
31568SOL    HW196711   7.753   7.488   2.602
31568SOL    HW296712   7.743   7.338   2.622
31569SOL     OW96713   7.290   0.799   2.321
31569SOL    HW196714   7.346   0.849   2.261
31569SOL    HW296715   7.203   0.802   2.281
31570SOL     OW96716   1.569   2.347   6.090
31570SOL    HW196717   1.558   2.286   6.163
31570SOL    HW296718   1.645   2.313   6.042
31571SOL     OW96719  10.113   6.375   0.388
31571SOL    HW196720  10.070   6.419   0.314
31571SOL    HW296721  10.196   6.344   0.352
31572SOL     OW96722   2.996   9.083   4.400
31572SOL    HW196723   3.090   9.098   4.389
31572SOL    HW296724   2.985   9.065   4.493
31573SOL     OW96725   8.708   2.515   9.856
31573SOL    HW196726   8.789   2.471   9.829
31573SOL    HW296727   8.638   2.465   9.814
31574SOL     OW96728   6.756   2.429   0.079
31574SOL    HW196729   6.668   2.405   0.108
31574SOL    HW296730   6.812   2.404   0.153
31575SOL     OW96731   5.403   8.254   3.933
31575SOL    HW196732   5.421   8.190   3.863
31575SOL    HW296733   5.448   8.219   4.010
31576SOL     OW96734   5.573  10.953   5.827
31576SOL    HW196735   5.628  10.886   5.867
31576SOL    HW296736   5.602  10.956   5.735
31577SOL     OW96737   7.954   0.555   2.620
31577SOL    HW196738   8.009   0.612   2.566
31577SOL    HW296739   7.994   0.559   2.707
31578SOL     OW96740   4.841   5.098   9.619
31578SOL    HW196741   4.789   5.020   9.597
31578SOL    HW296742   4.785   5.148   9.678
31579SOL     OW96743   0.620   1.228   3.991
31579SOL    HW196744   0.561   1.231   3.915
31579SOL    HW296745   0.575   1.278   4.059
31580SOL     OW96746   4.370   8.848  10.935
31580SOL    HW196747   4.298   8.898  10.972
31580SOL    HW296748   4.336   8.816  10.851
31581SOL     OW96749  10.993   4.647   1.240
31581SOL    HW196750  10.962   4.567   1.284
31581SOL    HW296751  10.925   4.712   1.258
31582SOL     OW96752   8.290   0.140  10.868
31582SOL    HW196753   8.280   0.045  10.874
31582SOL    HW296754   8.332   0.165  10.950
31583SOL     OW96755   6.708   3.417   3.007
31583SOL    HW196756   6.630   3.429   3.060
31583SOL    HW296757   6.780   3.448   3.061
31584SOL     OW96758   7.423  11.089   8.607
31584SOL    HW196759   7.465  11.114   8.689
31584SOL    HW296760   7.496  11.062   8.551
31585SOL     OW96761   9.236   5.530   6.193
31585SOL    HW196762   9.225   5.450   6.245
31585SOL    HW296763   9.155   5.579   6.207
31586SOL     OW96764   8.461   1.216   1.022
31586SOL    HW196765   8.433   1.135   0.979
31586SOL    HW296766   8.469   1.279   0.951
31587SOL     OW96767   9.176  10.044   8.390
31587SOL    HW196768   9.251  10.087   8.349
31587SOL    HW296769   9.144  10.107   8.454
31588SOL     OW96770   9.947   5.698   1.929
31588SOL    HW196771   9.932   5.604   1.939
31588SOL    HW296772   9.875   5.739   1.976
31589SOL     OW96773   7.977   7.170   3.198
31589SOL    HW196774   7.949   7.098   3.141
31589SOL    HW296775   7.965   7.249   3.145
31590SOL     OW96776   2.911   8.044   1.582
31590SOL    HW196777   2.965   7.984   1.530
31590SOL    HW296778   2.824   8.003   1.583
31591SOL     OW96779   3.023   2.807   8.898
31591SOL    HW196780   2.996   2.871   8.832
31591SOL    HW296781   3.077   2.744   8.850
31592SOL     OW96782   3.753   7.453   3.720
31592SOL    HW196783   3.728   7.401   3.644
31592SOL    HW296784   3.673   7.460   3.771
31593SOL     OW96785   7.032   1.899   8.403
31593SOL    HW196786   7.026   1.938   8.490
31593SOL    HW296787   7.060   1.970   8.346
31594SOL     OW96788   5.681   9.396   3.724
31594SOL    HW196789   5.611   9.343   3.685
31594SOL    HW296790   5.717   9.445   3.650
31595SOL     OW96791   9.724   6.356   6.959
31595SOL    HW196792   9.817   6.375   6.943
31595SOL    HW296793   9.716   6.261   6.944
31596SOL     OW96794   0.168   7.287   1.223
31596SOL    HW196795   0.108   7.274   1.149
31596SOL    HW296796   0.148   7.375   1.255
31597SOL     OW96797   1.277   4.713  10.357
31597SOL    HW196798   1.256   4.759  10.276
31597SOL    HW296799   1.354   4.758  10.391
31598SOL     OW96800   5.759   3.085   7.775
31598SOL    HW196801   5.789   3.076   7.865
31598SOL    HW296802   5.708   3.166   7.774
31599SOL     OW96803   5.922   2.790   5.841
31599SOL    HW196804   5.990   2.821   5.781
31599SOL    HW296805   5.850   2.851   5.829
31600SOL     OW96806   3.921   3.735   4.450
31600SOL    HW196807   3.825   3.737   4.448
31600SOL    HW296808   3.948   3.814   4.403
31601SOL     OW96809   2.449   5.974  11.092
31601SOL    HW196810   2.466   6.055  11.045
31601SOL    HW296811   2.402   5.919  11.029
31602SOL     OW96812   5.512   2.484   2.248
31602SOL    HW196813   5.456   2.406   2.247
31602SOL    HW296814   5.454   2.555   2.275
31603SOL     OW96815   7.479   3.352   0.226
31603SOL    HW196816   7.446   3.399   0.302
31603SOL    HW296817   7.475   3.259   0.251
31604SOL     OW96818   9.007   7.858  10.718
31604SOL    HW196819   8.947   7.783  10.724
31604SOL    HW296820   9.070   7.832  10.651
31605SOL     OW96821  10.534   4.927   7.000
31605SOL    HW196822  10.461   4.889   6.951
31605SOL    HW296823  10.561   4.857   7.060
31606SOL     OW96824  10.271   4.929   8.722
31606SOL    HW196825  10.176   4.937   8.728
31606SOL    HW296826  10.296   4.877   8.798
31607SOL     OW96827   6.214   5.001   5.938
31607SOL    HW196828   6.214   5.029   6.029
31607SOL    HW296829   6.141   4.939   5.931
31608SOL     OW96830   2.397   2.498   9.573
31608SOL    HW196831   2.447   2.448   9.508
31608SOL    HW296832   2.361   2.572   9.524
31609SOL     OW96833   6.567   1.287   4.118
31609SOL    HW196834   6.652   1.254   4.148
31609SOL    HW296835   6.519   1.209   4.090
31610SOL     OW96836   7.080   2.568  10.445
31610SOL    HW196837   7.076   2.514  10.366
31610SOL    HW296838   7.140   2.521  10.503
31611SOL     OW96839   6.142   9.081  11.009
31611SOL    HW196840   6.124   9.013  10.943
31611SOL    HW296841   6.235   9.101  10.997
31612SOL     OW96842   0.456   3.769   8.707
31612SOL    HW196843   0.419   3.719   8.634
31612SOL    HW296844   0.475   3.855   8.670
31613SOL     OW96845   2.173  10.824   1.000
31613SOL    HW196846   2.090  10.872   0.996
31613SOL    HW296847   2.226  10.873   1.063
31614SOL     OW96848   7.657   4.324   0.122
31614SOL    HW196849   7.694   4.390   0.064
31614SOL    HW296850   7.596   4.372   0.178
31615SOL     OW96851  10.204   3.447   9.601
31615SOL    HW196852  10.166   3.376   9.549
31615SOL    HW296853  10.130   3.502   9.625
31616SOL     OW96854   9.000   3.083   5.128
31616SOL    HW196855   9.008   3.026   5.204
31616SOL    HW296856   8.911   3.067   5.096
31617SOL     OW96857   6.373   4.332   5.721
31617SOL    HW196858   6.463   4.298   5.717
31617SOL    HW296859   6.383   4.427   5.720
31618SOL     OW96860   7.700   9.405   3.623
31618SOL    HW196861   7.626   9.447   3.667
31618SOL    HW296862   7.774   9.464   3.638
31619SOL     OW96863   4.765   7.433   1.359
31619SOL    HW196864   4.685   7.480   1.379
31619SOL    HW296865   4.755   7.406   1.267
31620SOL     OW96866   5.212   6.215   1.950
31620SOL    HW196867   5.225   6.229   1.856
31620SOL    HW296868   5.227   6.121   1.962
31621SOL     OW96869   0.731   4.631   4.937
31621SOL    HW196870   0.705   4.619   4.845
31621SOL    HW296871   0.655   4.603   4.987
31622SOL     OW96872   9.035   5.536   5.884
31622SOL    HW196873   9.041   5.596   5.809
31622SOL    HW296874   9.125   5.509   5.901
31623SOL     OW96875   0.062   2.355   0.651
31623SOL    HW196876   0.032   2.375   0.562
31623SOL    HW296877   0.145   2.401   0.659
31624SOL     OW96878   5.840   0.741   8.395
31624SOL    HW196879   5.819   0.648   8.388
31624SOL    HW296880   5.925   0.743   8.439
31625SOL     OW96881   3.504   2.646   1.846
31625SOL    HW196882   3.577   2.595   1.883
31625SOL    HW296883   3.538   2.679   1.763
31626SOL     OW96884   6.657   9.334   1.836
31626SOL    HW196885   6.632   9.426   1.829
31626SOL    HW296886   6.703   9.328   1.919
31627SOL     OW96887   7.930   1.917   1.339
31627SOL    HW196888   7.848   1.962   1.320
31627SOL    HW296889   7.992   1.952   1.275
31628SOL     OW96890   4.647   4.324   3.084
31628SOL    HW196891   4.643   4.397   3.145
31628SOL    HW296892   4.700   4.258   3.129
31629SOL     OW96893   0.538   3.911  10.445
31629SOL    HW196894   0.505   4.001  10.441
31629SOL    HW296895   0.495   3.873  10.521
31630SOL     OW96896   4.285   5.481  10.090
31630SOL    HW196897   4.338   5.520  10.159
31630SOL    HW296898   4.195   5.493  10.119
31631SOL     OW96899   7.302   7.067   9.349
31631SOL    HW196900   7.357   7.137   9.383
31631SOL    HW296901   7.247   7.109   9.283
31632SOL     OW96902   4.804   7.350   4.423
31632SOL    HW196903   4.786   7.345   4.516
31632SOL    HW296904   4.744   7.287   4.383
31633SOL     OW96905  10.255   2.308  10.585
31633SOL    HW196906  10.206   2.344  10.511
31633SOL    HW296907  10.214   2.346  10.662
31634SOL     OW96908   9.216   8.301   0.895
31634SOL    HW196909   9.170   8.311   0.978
31634SOL    HW296910   9.153   8.257   0.838
31635SOL     OW96911   5.403  10.282   3.036
31635SOL    HW196912   5.424  10.342   3.107
31635SOL    HW296913   5.481  10.226   3.028
31636SOL     OW96914   8.630   6.320   7.687
31636SOL    HW196915   8.587   6.340   7.770
31636SOL    HW296916   8.682   6.242   7.705
31637SOL     OW96917   7.544   1.469   2.405
31637SOL    HW196918   7.635   1.482   2.433
31637SOL    HW296919   7.520   1.383   2.440
31638SOL     OW96920   5.351   3.276   2.177
31638SOL    HW196921   5.335   3.367   2.153
31638SOL    HW296922   5.328   3.226   2.098
31639SOL     OW96923  10.281   9.043   1.258
31639SOL    HW196924  10.241   8.970   1.209
31639SOL    HW296925  10.254   9.121   1.210
31640SOL     OW96926   5.890   0.517   3.582
31640SOL    HW196927   5.901   0.612   3.584
31640SOL    HW296928   5.919   0.491   3.494
31641SOL     OW96929   9.411   4.277   4.297
31641SOL    HW196930   9.352   4.346   4.327
31641SOL    HW296931   9.458   4.316   4.223
31642SOL     OW96932   7.888   0.045   9.733
31642SOL    HW196933   7.913   0.088   9.651
31642SOL    HW296934   7.882   0.116   9.797
31643SOL     OW96935   0.808   7.633   5.560
31643SOL    HW196936   0.884   7.626   5.617
31643SOL    HW296937   0.737   7.592   5.609
31644SOL     OW96938   7.391   4.391   2.571
31644SOL    HW196939   7.453   4.405   2.642
31644SOL    HW296940   7.350   4.307   2.591
31645SOL     OW96941  10.049   1.205   5.314
31645SOL    HW196942  10.023   1.134   5.255
31645SOL    HW296943  10.103   1.262   5.260
31646SOL     OW96944   7.172   2.800   5.735
31646SOL    HW196945   7.079   2.779   5.743
31646SOL    HW296946   7.183   2.825   5.643
31647SOL     OW96947   8.191  10.074   2.189
31647SOL    HW196948   8.154  10.037   2.108
31647SOL    HW296949   8.263  10.129   2.159
31648SOL     OW96950   0.004   7.966  10.736
31648SOL    HW196951  -0.003   7.956  10.641
31648SOL    HW296952  -0.029   7.883  10.770
31649SOL     OW96953   1.158   3.063   3.354
31649SOL    HW196954   1.095   3.107   3.297
31649SOL    HW296955   1.219   3.132   3.381
31650SOL     OW96956   8.621   6.481   1.854
31650SOL    HW196957   8.564   6.418   1.898
31650SOL    HW296958   8.565   6.524   1.790
31651SOL     OW96959   6.541   5.445  10.249
31651SOL    HW196960   6.569   5.466  10.338
31651SOL    HW296961   6.506   5.356  10.255
31652SOL     OW96962   5.010   1.836   9.554
31652SOL    HW196963   5.057   1.754   9.538
31652SOL    HW296964   5.040   1.894   9.484
31653SOL     OW96965  10.700   3.214   0.865
31653SOL    HW196966  10.642   3.289   0.877
31653SOL    HW296967  10.767   3.224   0.933
31654SOL     OW96968   8.963   2.375   3.149
31654SOL    HW196969   8.939   2.405   3.236
31654SOL    HW296970   9.042   2.322   3.162
31655SOL     OW96971   8.003  11.088  10.771
31655SOL    HW196972   8.044  11.157  10.719
31655SOL    HW296973   8.025  11.007  10.724
31656SOL     OW96974   3.527   7.999  10.479
31656SOL    HW196975   3.607   8.042  10.508
31656SOL    HW296976   3.545   7.905  10.490
31657SOL     OW96977   6.615   3.047   7.432
31657SOL    HW196978   6.534   3.088   7.401
31657SOL    HW296979   6.671   3.120   7.458
31658SOL     OW96980  10.029   2.151   0.923
31658SOL    HW196981   9.957   2.095   0.894
31658SOL    HW296982   9.990   2.238   0.931
31659SOL     OW96983   3.782   5.752   6.206
31659SOL    HW196984   3.873   5.737   6.179
31659SOL    HW296985   3.789   5.785   6.295
31660SOL     OW96986  10.247   4.303   1.933
31660SOL    HW196987  10.182   4.285   1.865
31660SOL    HW296988  10.309   4.363   1.891
31661SOL     OW96989   5.174   5.667   4.268
31661SOL    HW196990   5.181   5.760   4.250
31661SOL    HW296991   5.196   5.659   4.361
31662SOL     OW96992   8.584   4.563   4.008
31662SOL    HW196993   8.607   4.549   4.099
31662SOL    HW296994   8.591   4.657   3.995
31663SOL     OW96995  10.158   3.636   8.380
31663SOL    HW196996  10.192   3.597   8.460
31663SOL    HW296997  10.069   3.663   8.402
31664SOL     OW96998   7.249   8.531   7.336
31664SOL    HW196999   7.271   8.472   7.263
31664SOL    HW297000   7.154   8.525   7.344
31665SOL     OW97001   9.282   1.800   6.848
31665SOL    HW197002   9.253   1.856   6.920
31665SOL    HW297003   9.207   1.743   6.830
31666SOL     OW97004   5.994   9.281   1.008
31666SOL    HW197005   5.980   9.189   1.031
31666SOL    HW297006   6.082   9.283   0.969
31667SOL     OW97007  10.195   7.366   3.156
31667SOL    HW197008  10.202   7.440   3.095
31667SOL    HW297009  10.195   7.288   3.099
31668SOL     OW97010   0.047   0.153   9.231
31668SOL    HW197011   0.083   0.162   9.319
31668SOL    HW297012   0.043   0.242   9.196
31669SOL     OW97013   3.489   9.934   1.892
31669SOL    HW197014   3.422   9.870   1.868
31669SOL    HW297015   3.448  10.019   1.878
31670SOL     OW97016   4.637   1.017   7.499
31670SOL    HW197017   4.710   1.075   7.477
31670SOL    HW297018   4.663   0.975   7.581
31671SOL     OW97019   0.520   2.145   1.995
31671SOL    HW197020   0.436   2.178   2.026
31671SOL    HW297021   0.545   2.204   1.924
31672SOL     OW97022   7.497   3.477  11.093
31672SOL    HW197023   7.567   3.414  11.076
31672SOL    HW297024   7.453   3.443  11.171
31673SOL     OW97025   2.644   0.561   1.319
31673SOL    HW197026   2.674   0.537   1.231
31673SOL    HW297027   2.676   0.490   1.375
31674SOL     OW97028   5.386   2.526   3.565
31674SOL    HW197029   5.342   2.441   3.562
31674SOL    HW297030   5.459   2.516   3.504
31675SOL     OW97031   8.648   0.313  10.351
31675SOL    HW197032   8.600   0.385  10.391
31675SOL    HW297033   8.657   0.338  10.259
31676SOL     OW97034   8.811   9.129   4.588
31676SOL    HW197035   8.805   9.065   4.659
31676SOL    HW297036   8.903   9.124   4.560
31677SOL     OW97037   9.931   9.726   4.334
31677SOL    HW197038   9.941   9.783   4.410
31677SOL    HW297039   9.886   9.648   4.367
31678SOL     OW97040   9.700   4.322   1.964
31678SOL    HW197041   9.639   4.390   1.990
31678SOL    HW297042   9.646   4.243   1.956
31679SOL     OW97043   9.812   3.363   2.536
31679SOL    HW197044   9.783   3.304   2.466
31679SOL    HW297045   9.847   3.304   2.603
31680SOL     OW97046   1.839   1.731   3.948
31680SOL    HW197047   1.750   1.696   3.954
31680SOL    HW297048   1.895   1.654   3.962
31681SOL     OW97049   7.284   5.010   8.574
31681SOL    HW197050   7.264   4.919   8.549
31681SOL    HW297051   7.218   5.032   8.640
31682SOL     OW97052   4.583   1.492   0.973
31682SOL    HW197053   4.668   1.453   0.994
31682SOL    HW297054   4.571   1.473   0.880
31683SOL     OW97055   7.126   0.932   2.837
31683SOL    HW197056   7.144   0.919   2.744
31683SOL    HW297057   7.031   0.944   2.842
31684SOL     OW97058   2.032   8.960   4.115
31684SOL    HW197059   1.967   8.915   4.061
31684SOL    HW297060   2.011   8.933   4.204
31685SOL     OW97061   7.933   1.761   3.932
31685SOL    HW197062   7.975   1.797   4.010
31685SOL    HW297063   7.965   1.671   3.927
31686SOL     OW97064   9.740   8.503   4.479
31686SOL    HW197065   9.722   8.539   4.565
31686SOL    HW297066   9.752   8.579   4.423
31687SOL     OW97067   7.392   5.714   1.945
31687SOL    HW197068   7.416   5.740   2.034
31687SOL    HW297069   7.474   5.682   1.907
31688SOL     OW97070   7.831   1.965   2.090
31688SOL    HW197071   7.760   2.019   2.055
31688SOL    HW297072   7.874   1.929   2.012
31689SOL     OW97073   6.140   7.864   6.685
31689SOL    HW197074   6.082   7.792   6.710
31689SOL    HW297075   6.081   7.935   6.662
31690SOL     OW97076   6.325   5.557   1.500
31690SOL    HW197077   6.409   5.518   1.523
31690SOL    HW297078   6.291   5.500   1.431
31691SOL     OW97079  11.025   0.503   2.352
31691SOL    HW197080  11.027   0.592   2.387
31691SOL    HW297081  11.092   0.456   2.402
31692SOL     OW97082  10.784   5.841   3.049
31692SOL    HW197083  10.816   5.841   2.959
31692SOL    HW297084  10.806   5.928   3.082
31693SOL     OW97085   8.271   9.379   4.102
31693SOL    HW197086   8.357   9.386   4.061
31693SOL    HW297087   8.255   9.285   4.109
31694SOL     OW97088   4.192   1.732   3.722
31694SOL    HW197089   4.099   1.731   3.741
31694SOL    HW297090   4.197   1.744   3.627
31695SOL     OW97091   0.378   0.508   5.069
31695SOL    HW197092   0.388   0.416   5.044
31695SOL    HW297093   0.374   0.555   4.985
31696SOL     OW97094   2.631   6.328   5.306
31696SOL    HW197095   2.571   6.259   5.335
31696SOL    HW297096   2.701   6.281   5.261
31697SOL     OW97097  10.951   7.948   9.256
31697SOL    HW197098  11.002   7.963   9.335
31697SOL    HW297099  10.911   8.033   9.237
31698SOL     OW97100   7.021   2.038   8.635
31698SOL    HW197101   6.930   2.015   8.651
31698SOL    HW297102   7.069   1.996   8.706
31699SOL     OW97103   4.938   2.579   9.386
31699SOL    HW197104   4.895   2.514   9.442
31699SOL    HW297105   4.913   2.663   9.423
31700SOL     OW97106  10.879   4.170   8.044
31700SOL    HW197107  10.898   4.236   7.978
31700SOL    HW297108  10.875   4.088   7.994
31701SOL     OW97109   4.949   3.747   3.691
31701SOL    HW197110   4.944   3.671   3.749
31701SOL    HW297111   4.905   3.718   3.611
31702SOL     OW97112   0.213   2.975   7.064
31702SOL    HW197113   0.175   2.902   7.015
31702SOL    HW297114   0.302   2.946   7.085
31703SOL     OW97115   0.270   5.984   4.304
31703SOL    HW197116   0.181   6.003   4.274
31703SOL    HW297117   0.324   6.052   4.264
31704SOL     OW97118  11.091  11.077   4.555
31704SOL    HW197119  11.032  11.150   4.571
31704SOL    HW297120  11.105  11.078   4.460
31705SOL     OW97121   9.734   4.234   3.622
31705SOL    HW197122   9.689   4.293   3.682
31705SOL    HW297123   9.739   4.282   3.539
31706SOL     OW97124   9.178   1.032   5.616
31706SOL    HW197125   9.249   0.976   5.649
31706SOL    HW297126   9.223   1.104   5.571
31707SOL     OW97127   7.743   4.222   2.924
31707SOL    HW197128   7.708   4.133   2.930
31707SOL    HW297129   7.726   4.260   3.010
31708SOL     OW97130   8.404   8.631  10.521
31708SOL    HW197131   8.413   8.681  10.440
31708SOL    HW297132   8.485   8.648  10.569
31709SOL     OW97133   3.882   0.480   4.055
31709SOL    HW197134   3.923   0.471   4.141
31709SOL    HW297135   3.802   0.529   4.071
31710SOL     OW97136   3.533   0.733   5.585
31710SOL    HW197137   3.543   0.680   5.664
31710SOL    HW297138   3.545   0.671   5.513
31711SOL     OW97139   9.299   2.984   8.987
31711SOL    HW197140   9.393   2.966   8.991
31711SOL    HW297141   9.286   3.023   8.900
31712SOL     OW97142   5.976   4.991   4.193
31712SOL    HW197143   6.068   5.018   4.187
31712SOL    HW297144   5.950   4.974   4.102
31713SOL     OW97145   7.486  10.608   5.994
31713SOL    HW197146   7.479  10.514   5.979
31713SOL    HW297147   7.523  10.642   5.912
31714SOL     OW97148   8.370   5.450   7.580
31714SOL    HW197149   8.375   5.368   7.529
31714SOL    HW297150   8.461   5.479   7.585
31715SOL     OW97151   7.812  10.442  10.687
31715SOL    HW197152   7.862  10.489  10.620
31715SOL    HW297153   7.735  10.408  10.640
31716SOL     OW97154   1.136   9.389   6.215
31716SOL    HW197155   1.097   9.393   6.127
31716SOL    HW297156   1.082   9.325   6.262
31717SOL     OW97157   9.890   0.336  10.009
31717SOL    HW197158   9.852   0.275   9.945
31717SOL    HW297159   9.897   0.285  10.089
31718SOL     OW97160   7.000   3.734   2.571
31718SOL    HW197161   6.963   3.810   2.615
31718SOL    HW297162   7.027   3.676   2.642
31719SOL     OW97163   6.170   4.101   5.560
31719SOL    HW197164   6.227   4.176   5.576
31719SOL    HW297165   6.173   4.088   5.465
31720SOL     OW97166  10.764   5.562   6.376
31720SOL    HW197167  10.682   5.610   6.387
31720SOL    HW297168  10.756   5.487   6.435
31721SOL     OW97169   7.556   5.855   4.477
31721SOL    HW197170   7.522   5.769   4.502
31721SOL    HW297171   7.642   5.837   4.439
31722SOL     OW97172   1.196   5.264   0.074
31722SOL    HW197173   1.167   5.241   0.163
31722SOL    HW297174   1.131   5.327   0.043
31723SOL     OW97175  11.046   4.083   2.073
31723SOL    HW197176  11.092   4.012   2.028
31723SOL    HW297177  11.077   4.163   2.030
31724SOL     OW97178   5.768   9.394   2.770
31724SOL    HW197179   5.776   9.469   2.711
31724SOL    HW297180   5.816   9.324   2.725
31725SOL     OW97181   9.170   2.260   5.460
31725SOL    HW197182   9.084   2.268   5.502
31725SOL    HW297183   9.229   2.312   5.514
31726SOL     OW97184  10.858   6.088   3.143
31726SOL    HW197185  10.944   6.078   3.184
31726SOL    HW297186  10.823   6.168   3.181
31727SOL     OW97187   0.089   4.015  10.389
31727SOL    HW197188   0.145   3.993  10.463
31727SOL    HW297189   0.103   3.943  10.326
31728SOL     OW97190   0.461   1.107   6.286
31728SOL    HW197191   0.424   1.180   6.334
31728SOL    HW297192   0.514   1.060   6.350
31729SOL     OW97193   1.564   8.622   1.646
31729SOL    HW197194   1.599   8.699   1.690
31729SOL    HW297195   1.633   8.595   1.585
31730SOL     OW97196   7.543   4.694   3.596
31730SOL    HW197197   7.490   4.742   3.532
31730SOL    HW297198   7.479   4.655   3.655
31731SOL     OW97199   9.387  10.141   0.758
31731SOL    HW197200   9.412  10.050   0.738
31731SOL    HW297201   9.374  10.142   0.853
31732SOL     OW97202   4.467   3.330   2.690
31732SOL    HW197203   4.486   3.417   2.725
31732SOL    HW297204   4.405   3.345   2.619
31733SOL     OW97205   0.544   7.915   4.663
31733SOL    HW197206   0.533   7.891   4.571
31733SOL    HW297207   0.547   7.831   4.709
31734SOL     OW97208   1.762   6.574   3.486
31734SOL    HW197209   1.791   6.506   3.547
31734SOL    HW297210   1.669   6.556   3.472
31735SOL     OW97211  10.911   0.282   3.690
31735SOL    HW197212  10.976   0.311   3.754
31735SOL    HW297213  10.827   0.304   3.730
31736SOL     OW97214   0.008   6.774   4.045
31736SOL    HW197215   0.089   6.776   3.994
31736SOL    HW297216  -0.056   6.733   3.987
31737SOL     OW97217   3.514   7.742   3.863
31737SOL    HW197218   3.603   7.743   3.898
31737SOL    HW297219   3.498   7.650   3.840
31738SOL     OW97220   7.529   9.337  10.989
31738SOL    HW197221   7.447   9.323  10.941
31738SOL    HW297222   7.579   9.256  10.974
31739SOL     OW97223   2.287   3.927   2.720
31739SOL    HW197224   2.195   3.905   2.708
31739SOL    HW297225   2.288   3.991   2.791
31740SOL     OW97226   7.485   9.311   6.546
31740SOL    HW197227   7.508   9.250   6.476
31740SOL    HW297228   7.391   9.325   6.535
31741SOL     OW97229   6.033   7.141   5.484
31741SOL    HW197230   6.096   7.125   5.414
31741SOL    HW297231   6.003   7.053   5.509
31742SOL     OW97232   5.750  10.328   1.106
31742SOL    HW197233   5.702  10.247   1.088
31742SOL    HW297234   5.690  10.398   1.081
31743SOL     OW97235   7.734   7.196   6.611
31743SOL    HW197236   7.706   7.106   6.631
31743SOL    HW297237   7.827   7.198   6.636
31744SOL     OW97238   7.549   2.296   7.529
31744SOL    HW197239   7.581   2.209   7.554
31744SOL    HW297240   7.528   2.339   7.611
31745SOL     OW97241  10.381   4.508   2.691
31745SOL    HW197242  10.424   4.423   2.682
31745SOL    HW297243  10.378   4.524   2.785
31746SOL     OW97244   5.245   2.136  10.417
31746SOL    HW197245   5.174   2.079  10.386
31746SOL    HW297246   5.304   2.143  10.342
31747SOL     OW97247   5.328   6.161   4.683
31747SOL    HW197248   5.287   6.131   4.764
31747SOL    HW297249   5.415   6.190   4.709
31748SOL     OW97250   9.490   3.334   3.564
31748SOL    HW197251   9.452   3.359   3.648
31748SOL    HW297252   9.584   3.352   3.573
31749SOL     OW97253   4.355   2.118   6.697
31749SOL    HW197254   4.374   2.196   6.748
31749SOL    HW297255   4.397   2.047   6.745
31750SOL     OW97256   3.255   2.273   6.274
31750SOL    HW197257   3.229   2.259   6.183
31750SOL    HW297258   3.348   2.296   6.269
31751SOL     OW97259   1.256  10.613   5.706
31751SOL    HW197260   1.319  10.624   5.634
31751SOL    HW297261   1.270  10.523   5.736
31752SOL     OW97262   7.978   3.756   2.823
31752SOL    HW197263   7.993   3.844   2.790
31752SOL    HW297264   7.915   3.767   2.894
31753SOL     OW97265   2.711   6.428   1.714
31753SOL    HW197266   2.628   6.475   1.709
31753SOL    HW297267   2.766   6.469   1.647
31754SOL     OW97268   9.302   1.117   3.657
31754SOL    HW197269   9.235   1.185   3.652
31754SOL    HW297270   9.344   1.118   3.571
31755SOL     OW97271   5.334   4.431   5.229
31755SOL    HW197272   5.294   4.515   5.209
31755SOL    HW297273   5.377   4.405   5.147
31756SOL     OW97274   1.796   0.045   8.688
31756SOL    HW197275   1.874  -0.011   8.687
31756SOL    HW297276   1.731  -0.003   8.636
31757SOL     OW97277   2.613   4.066   8.377
31757SOL    HW197278   2.525   4.061   8.414
31757SOL    HW297279   2.599   4.087   8.284
31758SOL     OW97280   3.933   2.378   9.630
31758SOL    HW197281   3.961   2.467   9.608
31758SOL    HW297282   3.972   2.323   9.561
31759SOL     OW97283  10.980   8.319   2.484
31759SOL    HW197284  10.920   8.293   2.414
31759SOL    HW297285  11.061   8.272   2.464
31760SOL     OW97286   7.808   0.144   4.060
31760SOL    HW197287   7.760   0.178   4.135
31760SOL    HW297288   7.786   0.204   3.989
31761SOL     OW97289  10.312   8.125   0.246
31761SOL    HW197290  10.336   8.079   0.165
31761SOL    HW297291  10.393   8.169   0.273
31762SOL     OW97292   7.616   0.594   1.414
31762SOL    HW197293   7.525   0.578   1.440
31762SOL    HW297294   7.641   0.514   1.367
31763SOL     OW97295   7.847   5.842   0.252
31763SOL    HW197296   7.805   5.789   0.184
31763SOL    HW297297   7.858   5.781   0.325
31764SOL     OW97298   6.568   3.396   1.960
31764SOL    HW197299   6.493   3.444   1.925
31764SOL    HW297300   6.606   3.351   1.884
31765SOL     OW97301   0.954   8.287   1.455
31765SOL    HW197302   0.886   8.244   1.404
31765SOL    HW297303   1.035   8.269   1.406
31766SOL     OW97304   6.081   6.594   1.000
31766SOL    HW197305   6.075   6.542   1.080
31766SOL    HW297306   6.088   6.684   1.030
31767SOL     OW97307   6.533   2.091   7.508
31767SOL    HW197308   6.466   2.070   7.442
31767SOL    HW297309   6.590   2.014   7.509
31768SOL     OW97310   1.800   4.350  11.005
31768SOL    HW197311   1.830   4.265  10.971
31768SOL    HW297312   1.746   4.385  10.934
31769SOL     OW97313   8.140   0.038   7.939
31769SOL    HW197314   8.150  -0.046   7.984
31769SOL    HW297315   8.068   0.081   7.984
31770SOL     OW97316  11.051   3.383  10.186
31770SOL    HW197317  11.069   3.290  10.201
31770SOL    HW297318  10.956   3.388  10.177
31771SOL     OW97319   0.095   6.814   8.874
31771SOL    HW197320   0.088   6.723   8.904
31771SOL    HW297321   0.188   6.833   8.878
31772SOL     OW97322   6.856   6.391   8.040
31772SOL    HW197323   6.917   6.460   8.065
31772SOL    HW297324   6.769   6.429   8.055
31773SOL     OW97325   9.696   6.427   0.182
31773SOL    HW197326   9.662   6.374   0.110
31773SOL    HW297327   9.643   6.402   0.258
31774SOL     OW97328   5.923   8.961   0.204
31774SOL    HW197329   5.995   8.971   0.141
31774SOL    HW297330   5.860   8.904   0.159
31775SOL     OW97331   9.368   2.527   4.063
31775SOL    HW197332   9.302   2.578   4.110
31775SOL    HW297333   9.319   2.481   3.995
31776SOL     OW97334   7.324   6.579   6.638
31776SOL    HW197335   7.322   6.489   6.605
31776SOL    HW297336   7.327   6.632   6.559
31777SOL     OW97337   9.900   2.858   5.170
31777SOL    HW197338   9.965   2.855   5.100
31777SOL    HW297339   9.951   2.876   5.249
31778SOL     OW97340   6.487   6.440   2.246
31778SOL    HW197341   6.456   6.373   2.185
31778SOL    HW297342   6.409   6.489   2.269
31779SOL     OW97343   5.233   5.046   3.906
31779SOL    HW197344   5.258   5.105   3.977
31779SOL    HW297345   5.314   5.033   3.856
31780SOL     OW97346   5.482   4.271   3.862
31780SOL    HW197347   5.476   4.180   3.891
31780SOL    HW297348   5.526   4.316   3.934
31781SOL     OW97349   7.455   0.638   9.925
31781SOL    HW197350   7.391   0.672   9.987
31781SOL    HW297351   7.404   0.584   9.865
31782SOL     OW97352   2.783   4.962   1.652
31782SOL    HW197353   2.721   4.903   1.695
31782SOL    HW297354   2.798   4.922   1.566
31783SOL     OW97355   4.696   6.513   0.549
31783SOL    HW197356   4.708   6.440   0.609
31783SOL    HW297357   4.718   6.476   0.463
31784SOL     OW97358   8.188   1.545   0.939
31784SOL    HW197359   8.135   1.585   0.870
31784SOL    HW297360   8.171   1.451   0.930
31785SOL     OW97361   6.569  10.725   7.019
31785SOL    HW197362   6.625  10.750   7.092
31785SOL    HW297363   6.511  10.800   7.006
31786SOL     OW97364   5.466   1.752   4.911
31786SOL    HW197365   5.483   1.845   4.899
31786SOL    HW297366   5.415   1.747   4.991
31787SOL     OW97367   0.491   1.280   7.012
31787SOL    HW197368   0.456   1.293   6.924
31787SOL    HW297369   0.561   1.216   7.000
31788SOL     OW97370   1.568   7.003   0.728
31788SOL    HW197371   1.558   7.086   0.682
31788SOL    HW297372   1.541   7.021   0.818
31789SOL     OW97373   8.280   5.427   1.822
31789SOL    HW197374   8.270   5.391   1.734
31789SOL    HW297375   8.245   5.359   1.880
31790SOL     OW97376   0.980   1.163   2.283
31790SOL    HW197377   0.906   1.201   2.235
31790SOL    HW297378   0.965   1.188   2.374
31791SOL     OW97379   0.814   6.135   6.996
31791SOL    HW197380   0.791   6.226   7.014
31791SOL    HW297381   0.745   6.103   6.938
31792SOL     OW97382   9.341   5.454   3.878
31792SOL    HW197383   9.248   5.463   3.899
31792SOL    HW297384   9.344   5.459   3.782
31793SOL     OW97385   0.393   7.072  10.392
31793SOL    HW197386   0.339   6.993  10.385
31793SOL    HW297387   0.333   7.138  10.426
31794SOL     OW97388   4.894   7.245   5.664
31794SOL    HW197389   4.939   7.166   5.694
31794SOL    HW297390   4.924   7.314   5.723
31795SOL     OW97391   5.491   7.042   6.534
31795SOL    HW197392   5.415   6.985   6.548
31795SOL    HW297393   5.475   7.082   6.448
31796SOL     OW97394   4.589   1.931   4.083
31796SOL    HW197395   4.683   1.916   4.090
31796SOL    HW297396   4.550   1.848   4.110
31797SOL     OW97397   4.304  11.001   6.422
31797SOL    HW197398   4.344  10.990   6.335
31797SOL    HW297399   4.308  10.914   6.461
31798SOL     OW97400   6.821   9.278   1.093
31798SOL    HW197401   6.798   9.289   1.185
31798SOL    HW297402   6.880   9.202   1.092
31799SOL     OW97403   3.431   3.588   8.861
31799SOL    HW197404   3.472   3.582   8.947
31799SOL    HW297405   3.386   3.672   8.861
31800SOL     OW97406   8.122   9.268   6.972
31800SOL    HW197407   8.067   9.235   6.900
31800SOL    HW297408   8.129   9.362   6.956
31801SOL     OW97409   5.489   5.704   8.131
31801SOL    HW197410   5.409   5.753   8.150
31801SOL    HW297411   5.481   5.681   8.038
31802SOL     OW97412   0.446   7.651   5.320
31802SOL    HW197413   0.415   7.564   5.295
31802SOL    HW297414   0.367   7.705   5.323
31803SOL     OW97415   5.710   9.405  10.020
31803SOL    HW197416   5.779   9.341  10.000
31803SOL    HW297417   5.756   9.489  10.022
31804SOL     OW97418   9.541   7.562   0.769
31804SOL    HW197419   9.624   7.609   0.761
31804SOL    HW297420   9.560   7.489   0.829
31805SOL     OW97421   5.717   8.781  10.689
31805SOL    HW197422   5.627   8.812  10.692
31805SOL    HW297423   5.759   8.820  10.765
31806SOL     OW97424   0.390   7.524   9.825
31806SOL    HW197425   0.442   7.507   9.903
31806SOL    HW297426   0.354   7.611   9.839
31807SOL     OW97427   1.211   4.209   7.213
31807SOL    HW197428   1.204   4.286   7.156
31807SOL    HW297429   1.215   4.244   7.301
31808SOL     OW97430  10.059   6.036   8.945
31808SOL    HW197431  10.066   6.127   8.972
31808SOL    HW297432   9.980   6.004   8.987
31809SOL     OW97433   7.506   1.658   6.377
31809SOL    HW197434   7.446   1.720   6.337
31809SOL    HW297435   7.463   1.631   6.458
31810SOL     OW97436   1.504   6.845   6.535
31810SOL    HW197437   1.440   6.892   6.587
31810SOL    HW297438   1.481   6.753   6.546
31811SOL     OW97439   6.939  11.051   2.244
31811SOL    HW197440   6.889  10.970   2.253
31811SOL    HW297441   7.007  11.030   2.180
31812SOL     OW97442   7.087   6.716   4.599
31812SOL    HW197443   7.047   6.800   4.576
31812SOL    HW297444   7.103   6.722   4.693
31813SOL     OW97445   3.186   6.928   2.294
31813SOL    HW197446   3.163   6.843   2.256
31813SOL    HW297447   3.114   6.948   2.354
31814SOL     OW97448   6.462   6.973   5.091
31814SOL    HW197449   6.444   6.882   5.065
31814SOL    HW297450   6.556   6.984   5.075
31815SOL     OW97451   0.281   8.639   3.096
31815SOL    HW197452   0.192   8.668   3.075
31815SOL    HW297453   0.274   8.603   3.184
31816SOL     OW97454   8.701   5.120   2.810
31816SOL    HW197455   8.686   5.171   2.889
31816SOL    HW297456   8.636   5.152   2.747
31817SOL     OW97457   5.855   4.733   6.351
31817SOL    HW197458   5.915   4.665   6.382
31817SOL    HW297459   5.908   4.788   6.293
31818SOL     OW97460   6.933   5.207   7.560
31818SOL    HW197461   6.865   5.233   7.497
31818SOL    HW297462   7.011   5.192   7.506
31819SOL     OW97463   9.652   2.416   5.389
31819SOL    HW197464   9.635   2.327   5.357
31819SOL    HW297465   9.716   2.452   5.327
31820SOL     OW97466   0.554   8.017   3.003
31820SOL    HW197467   0.529   8.092   3.056
31820SOL    HW297468   0.522   8.037   2.915
31821SOL     OW97469   0.378   2.906   2.127
31821SOL    HW197470   0.302   2.855   2.155
31821SOL    HW297471   0.341   2.988   2.093
31822SOL     OW97472   1.743   9.245   3.302
31822SOL    HW197473   1.660   9.263   3.259
31822SOL    HW297474   1.719   9.206   3.386
31823SOL     OW97475   1.317  10.451  10.310
31823SOL    HW197476   1.280  10.539  10.305
31823SOL    HW297477   1.245  10.394  10.284
31824SOL     OW97478   0.950   6.638  10.503
31824SOL    HW197479   1.024   6.685  10.464
31824SOL    HW297480   0.947   6.554  10.456
31825SOL     OW97481   1.189   3.171   8.170
31825SOL    HW197482   1.123   3.102   8.161
31825SOL    HW297483   1.250   3.137   8.235
31826SOL     OW97484   8.744   3.480   8.582
31826SOL    HW197485   8.812   3.501   8.645
31826SOL    HW297486   8.750   3.549   8.516
31827SOL     OW97487   1.094   4.008   0.590
31827SOL    HW197488   1.100   4.101   0.571
31827SOL    HW297489   1.045   3.972   0.516
31828SOL     OW97490   2.773   0.735   6.492
31828SOL    HW197491   2.821   0.782   6.424
31828SOL    HW297492   2.738   0.658   6.447
31829SOL     OW97493   4.773   2.347   9.865
31829SOL    HW197494   4.762   2.388   9.950
31829SOL    HW297495   4.699   2.378   9.812
31830SOL     OW97496   3.749   1.419   4.449
31830SOL    HW197497   3.783   1.363   4.379
31830SOL    HW297498   3.746   1.362   4.525
31831SOL     OW97499   4.492   6.277   2.164
31831SOL    HW197500   4.466   6.322   2.083
31831SOL    HW297501   4.546   6.340   2.211
31832SOL     OW97502  10.873   5.466   3.559
31832SOL    HW197503  10.856   5.559   3.568
31832SOL    HW297504  10.872   5.433   3.649
31833SOL     OW97505   1.670   6.014  10.064
31833SOL    HW197506   1.582   6.036  10.095
31833SOL    HW297507   1.677   6.058   9.979
31834SOL     OW97508   6.661   4.610   8.636
31834SOL    HW197509   6.719   4.564   8.696
31834SOL    HW297510   6.616   4.540   8.588
31835SOL     OW97511   4.287   5.532   3.414
31835SOL    HW197512   4.332   5.459   3.458
31835SOL    HW297513   4.196   5.503   3.407
31836SOL     OW97514   4.127   6.899   2.626
31836SOL    HW197515   4.159   6.816   2.662
31836SOL    HW297516   4.045   6.876   2.583
31837SOL     OW97517   2.076   2.541   0.619
31837SOL    HW197518   2.065   2.522   0.525
31837SOL    HW297519   2.082   2.636   0.624
31838SOL     OW97520   0.719   1.546   8.710
31838SOL    HW197521   0.743   1.479   8.775
31838SOL    HW297522   0.774   1.525   8.634
31839SOL     OW97523   6.321   8.740   6.619
31839SOL    HW197524   6.319   8.702   6.707
31839SOL    HW297525   6.404   8.788   6.615
31840SOL     OW97526   0.355   9.300   7.386
31840SOL    HW197527   0.326   9.219   7.342
31840SOL    HW297528   0.293   9.367   7.355
31841SOL     OW97529   9.976   7.012   5.007
31841SOL    HW197530   9.999   7.094   5.049
31841SOL    HW297531  10.046   6.997   4.944
31842SOL     OW97532  10.121   0.866   4.403
31842SOL    HW197533  10.175   0.869   4.324
31842SOL    HW297534  10.127   0.775   4.433
31843SOL     OW97535   1.582   4.353   3.734
31843SOL    HW197536   1.558   4.270   3.776
31843SOL    HW297537   1.532   4.354   3.652
31844SOL     OW97538   7.632   5.509   1.565
31844SOL    HW197539   7.617   5.600   1.590
31844SOL    HW297540   7.578   5.496   1.487
31845SOL     OW97541   0.835   2.265   0.517
31845SOL    HW197542   0.927   2.240   0.503
31845SOL    HW297543   0.835   2.315   0.598
31846SOL     OW97544   7.653   1.366   9.221
31846SOL    HW197545   7.672   1.276   9.192
31846SOL    HW297546   7.601   1.355   9.300
31847SOL     OW97547  10.532   4.483   3.864
31847SOL    HW197548  10.468   4.429   3.817
31847SOL    HW297549  10.596   4.508   3.797
31848SOL     OW97550   9.719   9.894   3.482
31848SOL    HW197551   9.739   9.974   3.530
31848SOL    HW297552   9.627   9.902   3.458
31849SOL     OW97553   6.176   8.490   7.626
31849SOL    HW197554   6.115   8.561   7.644
31849SOL    HW297555   6.238   8.526   7.562
31850SOL     OW97556   5.896   5.544   2.647
31850SOL    HW197557   5.930   5.455   2.636
31850SOL    HW297558   5.857   5.544   2.734
31851SOL     OW97559   8.362   3.324  10.871
31851SOL    HW197560   8.402   3.246  10.831
31851SOL    HW297561   8.433   3.365  10.920
31852SOL     OW97562   4.396   3.599  10.628
31852SOL    HW197563   4.437   3.529  10.577
31852SOL    HW297564   4.349   3.651  10.563
31853SOL     OW97565   3.612   2.532   0.268
31853SOL    HW197566   3.637   2.486   0.187
31853SOL    HW297567   3.517   2.522   0.273
31854SOL     OW97568   3.632   3.578   5.723
31854SOL    HW197569   3.631   3.577   5.818
31854SOL    HW297570   3.677   3.497   5.699
31855SOL     OW97571   4.866   2.933  10.180
31855SOL    HW197572   4.923   2.956  10.106
31855SOL    HW297573   4.888   2.996  10.248
31856SOL     OW97574   7.624   3.521   7.545
31856SOL    HW197575   7.533   3.515   7.517
31856SOL    HW297576   7.639   3.441   7.595
31857SOL     OW97577   6.324   3.637   3.311
31857SOL    HW197578   6.303   3.676   3.396
31857SOL    HW297579   6.382   3.700   3.269
31858SOL     OW97580   7.674   7.800  10.377
31858SOL    HW197581   7.664   7.735  10.446
31858SOL    HW297582   7.599   7.858  10.388
31859SOL     OW97583   2.585   6.283   4.638
31859SOL    HW197584   2.627   6.329   4.710
31859SOL    HW297585   2.654   6.274   4.572
31860SOL     OW97586   0.601   6.982   4.386
31860SOL    HW197587   0.579   6.929   4.463
31860SOL    HW297588   0.624   7.068   4.421
31861SOL     OW97589   8.051   3.229   3.166
31861SOL    HW197590   8.037   3.211   3.259
31861SOL    HW297591   7.982   3.291   3.142
31862SOL     OW97592   9.399  10.428   8.953
31862SOL    HW197593   9.373  10.419   8.861
31862SOL    HW297594   9.494  10.438   8.949
31863SOL     OW97595   0.161   4.271   7.391
31863SOL    HW197596   0.220   4.336   7.353
31863SOL    HW297597   0.146   4.208   7.320
31864SOL     OW97598   0.319   2.520  10.822
31864SOL    HW197599   0.355   2.553  10.739
31864SOL    HW297600   0.291   2.598  10.869
31865SOL     OW97601   0.160   4.903   0.023
31865SOL    HW197602   0.167   4.878  -0.069
31865SOL    HW297603   0.237   4.864   0.065
31866SOL     OW97604   4.674   4.680   5.517
31866SOL    HW197605   4.675   4.661   5.610
31866SOL    HW297606   4.737   4.618   5.479
31867SOL     OW97607   0.376   7.081   2.551
31867SOL    HW197608   0.397   7.174   2.558
31867SOL    HW297609   0.435   7.038   2.613
31868SOL     OW97610   1.927   9.063   8.621
31868SOL    HW197611   1.841   9.026   8.602
31868SOL    HW297612   1.910   9.141   8.673
31869SOL     OW97613   2.590   1.530   8.977
31869SOL    HW197614   2.529   1.601   8.959
31869SOL    HW297615   2.551   1.453   8.934
31870SOL     OW97616   2.331   6.336   6.658
31870SOL    HW197617   2.243   6.365   6.635
31870SOL    HW297618   2.357   6.280   6.584
31871SOL     OW97619   7.164   4.770   0.758
31871SOL    HW197620   7.082   4.785   0.805
31871SOL    HW297621   7.137   4.749   0.668
31872SOL     OW97622  10.174   6.805   5.700
31872SOL    HW197623  10.106   6.738   5.699
31872SOL    HW297624  10.162   6.852   5.617
31873SOL     OW97625   9.013   1.090   9.850
31873SOL    HW197626   8.957   1.102   9.926
31873SOL    HW297627   8.955   1.054   9.783
31874SOL     OW97628   7.535   0.749   7.857
31874SOL    HW197629   7.441   0.749   7.873
31874SOL    HW297630   7.547   0.685   7.787
31875SOL     OW97631   1.434   6.172   7.556
31875SOL    HW197632   1.343   6.145   7.549
31875SOL    HW297633   1.470   6.117   7.625
31876SOL     OW97634   8.605   6.504  10.264
31876SOL    HW197635   8.549   6.521  10.339
31876SOL    HW297636   8.633   6.590  10.234
31877SOL     OW97637  10.352   6.770   6.223
31877SOL    HW197638  10.388   6.856   6.203
31877SOL    HW297639  10.380   6.715   6.149
31878SOL     OW97640   3.692   7.681   0.250
31878SOL    HW197641   3.624   7.718   0.306
31878SOL    HW297642   3.645   7.647   0.174
31879SOL     OW97643   3.363   8.288   7.073
31879SOL    HW197644   3.340   8.328   7.157
31879SOL    HW297645   3.306   8.211   7.067
31880SOL     OW97646  10.704   5.234   0.488
31880SOL    HW197647  10.758   5.169   0.442
31880SOL    HW297648  10.734   5.318   0.453
31881SOL     OW97649  10.512   7.377   0.521
31881SOL    HW197650  10.445   7.368   0.453
31881SOL    HW297651  10.521   7.289   0.557
31882SOL     OW97652   6.734   8.517   3.601
31882SOL    HW197653   6.769   8.428   3.591
31882SOL    HW297654   6.692   8.536   3.517
31883SOL     OW97655   9.428   4.011   4.993
31883SOL    HW197656   9.518   4.023   4.963
31883SOL    HW297657   9.399   4.098   5.018
31884SOL     OW97658   9.308   8.259   5.771
31884SOL    HW197659   9.290   8.231   5.861
31884SOL    HW297660   9.325   8.353   5.777
31885SOL     OW97661   2.879   5.865   3.040
31885SOL    HW197662   2.917   5.777   3.040
31885SOL    HW297663   2.841   5.875   3.127
31886SOL     OW97664   2.900   0.285   5.655
31886SOL    HW197665   2.895   0.260   5.747
31886SOL    HW297666   2.825   0.242   5.614
31887SOL     OW97667   6.216   8.523   3.635
31887SOL    HW197668   6.297   8.482   3.665
31887SOL    HW297669   6.177   8.561   3.713
31888SOL     OW97670   8.336   2.094   3.281
31888SOL    HW197671   8.273   2.094   3.353
31888SOL    HW297672   8.389   2.015   3.295
31889SOL     OW97673   7.756   0.690   9.406
31889SOL    HW197674   7.809   0.642   9.469
31889SOL    HW297675   7.719   0.763   9.456
31890SOL     OW97676   1.621   8.521   0.507
31890SOL    HW197677   1.544   8.467   0.490
31890SOL    HW297678   1.692   8.478   0.459
31891SOL     OW97679   8.776   7.544  10.529
31891SOL    HW197680   8.732   7.625  10.502
31891SOL    HW297681   8.783   7.493  10.448
31892SOL     OW97682   8.324  10.886   3.283
31892SOL    HW197683   8.415  10.859   3.297
31892SOL    HW297684   8.325  10.931   3.198
31893SOL     OW97685   7.497   4.749  10.669
31893SOL    HW197686   7.452   4.685  10.724
31893SOL    HW297687   7.455   4.740  10.583
31894SOL     OW97688   8.036   3.828   4.539
31894SOL    HW197689   8.099   3.809   4.469
31894SOL    HW297690   8.081   3.801   4.619
31895SOL     OW97691   3.808   2.976   8.871
31895SOL    HW197692   3.765   2.938   8.947
31895SOL    HW297693   3.762   2.938   8.796
31896SOL     OW97694   6.548   8.194   2.647
31896SOL    HW197695   6.519   8.246   2.572
31896SOL    HW297696   6.468   8.173   2.694
31897SOL     OW97697  10.675   9.331   0.084
31897SOL    HW197698  10.588   9.293   0.077
31897SOL    HW297699  10.728   9.281   0.022
31898SOL     OW97700   6.207   2.041   3.896
31898SOL    HW197701   6.145   2.113   3.891
31898SOL    HW297702   6.290   2.078   3.866
31899SOL     OW97703   6.682   9.248   5.971
31899SOL    HW197704   6.665   9.258   6.064
31899SOL    HW297705   6.597   9.259   5.929
31900SOL     OW97706   0.609   4.048   9.768
31900SOL    HW197707   0.619   4.105   9.844
31900SOL    HW297708   0.695   4.050   9.725
31901SOL     OW97709   3.996   1.730   6.131
31901SOL    HW197710   4.080   1.747   6.088
31901SOL    HW297711   3.991   1.634   6.137
31902SOL     OW97712   5.299   8.626   6.687
31902SOL    HW197713   5.340   8.580   6.760
31902SOL    HW297714   5.205   8.621   6.705
31903SOL     OW97715   0.372   1.169   7.485
31903SOL    HW197716   0.375   1.205   7.396
31903SOL    HW297717   0.333   1.082   7.473
31904SOL     OW97718   2.899   6.538  10.866
31904SOL    HW197719   2.857   6.477  10.926
31904SOL    HW297720   2.850   6.619  10.877
31905SOL     OW97721   0.195   0.780   6.046
31905SOL    HW197722   0.171   0.809   6.134
31905SOL    HW297723   0.195   0.684   6.051
31906SOL     OW97724   7.879  11.052   4.462
31906SOL    HW197725   7.946  11.121   4.458
31906SOL    HW297726   7.912  10.984   4.403
31907SOL     OW97727   6.911   7.011   1.945
31907SOL    HW197728   6.885   7.076   2.010
31907SOL    HW297729   6.835   6.953   1.938
31908SOL     OW97730   9.537   2.661   9.261
31908SOL    HW197731   9.543   2.700   9.348
31908SOL    HW297732   9.489   2.579   9.274
31909SOL     OW97733   7.295   7.140   9.676
31909SOL    HW197734   7.256   7.225   9.656
31909SOL    HW297735   7.227   7.076   9.654
31910SOL     OW97736  11.005   5.704   5.037
31910SOL    HW197737  10.932   5.744   4.990
31910SOL    HW297738  11.051   5.777   5.077
31911SOL     OW97739   4.655   9.278  11.044
31911SOL    HW197740   4.742   9.238  11.049
31911SOL    HW297741   4.645   9.302  10.952
31912SOL     OW97742   8.320   0.810   1.364
31912SOL    HW197743   8.337   0.830   1.456
31912SOL    HW297744   8.246   0.866   1.340
31913SOL     OW97745  10.251   7.159   2.254
31913SOL    HW197746  10.289   7.163   2.166
31913SOL    HW297747  10.326   7.161   2.313
31914SOL     OW97748   7.473   5.749   6.107
31914SOL    HW197749   7.382   5.722   6.119
31914SOL    HW297750   7.483   5.828   6.160
31915SOL     OW97751  10.359   4.951  10.617
31915SOL    HW197752  10.404   4.886  10.671
31915SOL    HW297753  10.388   5.035  10.652
31916SOL     OW97754   3.687   1.965  10.692
31916SOL    HW197755   3.752   1.957  10.762
31916SOL    HW297756   3.738   1.957  10.611
31917SOL     OW97757   7.326   2.696   1.202
31917SOL    HW197758   7.363   2.738   1.124
31917SOL    HW297759   7.375   2.614   1.210
31918SOL     OW97760   4.419   7.086   4.786
31918SOL    HW197761   4.418   7.116   4.876
31918SOL    HW297762   4.465   7.002   4.789
31919SOL     OW97763   5.347   9.097   4.617
31919SOL    HW197764   5.418   9.063   4.672
31919SOL    HW297765   5.384   9.175   4.576
31920SOL     OW97766   8.375   6.660   3.760
31920SOL    HW197767   8.284   6.634   3.745
31920SOL    HW297768   8.375   6.755   3.749
31921SOL     OW97769  10.274   2.061   9.000
31921SOL    HW197770  10.188   2.070   9.040
31921SOL    HW297771  10.263   1.991   8.935
31922SOL     OW97772  10.744   1.391   7.628
31922SOL    HW197773  10.650   1.404   7.643
31922SOL    HW297774  10.786   1.429   7.705
31923SOL     OW97775   3.536   6.594   8.450
31923SOL    HW197776   3.510   6.520   8.505
31923SOL    HW297777   3.483   6.667   8.480
31924SOL     OW97778   9.270   9.782   2.366
31924SOL    HW197779   9.271   9.687   2.379
31924SOL    HW297780   9.346   9.814   2.415
31925SOL     OW97781   0.620   4.123   1.467
31925SOL    HW197782   0.528   4.097   1.459
31925SOL    HW297783   0.648   4.085   1.550
31926SOL     OW97784   9.926   7.327   5.307
31926SOL    HW197785   9.978   7.330   5.226
31926SOL    HW297786   9.991   7.314   5.376
31927SOL     OW97787   3.153   8.150   3.558
31927SOL    HW197788   3.203   8.165   3.638
31927SOL    HW297789   3.209   8.184   3.488
31928SOL     OW97790   8.062   2.915  10.605
31928SOL    HW197791   8.002   2.840  10.607
31928SOL    HW297792   8.138   2.883  10.556
31929SOL     OW97793   6.487   2.101   0.816
31929SOL    HW197794   6.426   2.049   0.762
31929SOL    HW297795   6.435   2.129   0.891
31930SOL     OW97796   8.337   0.105   5.065
31930SOL    HW197797   8.357   0.030   5.121
31930SOL    HW297798   8.339   0.070   4.976
31931SOL     OW97799   8.321   9.085   8.384
31931SOL    HW197800   8.375   9.140   8.440
31931SOL    HW297801   8.258   9.145   8.345
31932SOL     OW97802   7.608   3.281   5.320
31932SOL    HW197803   7.568   3.350   5.373
31932SOL    HW297804   7.619   3.320   5.233
31933SOL     OW97805   7.821   3.689   4.321
31933SOL    HW197806   7.914   3.668   4.312
31933SOL    HW297807   7.819   3.763   4.382
31934SOL     OW97808   8.669   8.047   5.338
31934SOL    HW197809   8.638   8.133   5.311
31934SOL    HW297810   8.765   8.053   5.336
31935SOL     OW97811   5.978   5.631   3.246
31935SOL    HW197812   6.003   5.590   3.163
31935SOL    HW297813   6.038   5.594   3.310
31936SOL     OW97814   6.762   5.209   6.181
31936SOL    HW197815   6.731   5.220   6.271
31936SOL    HW297816   6.684   5.221   6.127
31937SOL     OW97817  10.139   5.521   9.755
31937SOL    HW197818  10.074   5.458   9.723
31937SOL    HW297819  10.088   5.598   9.780
31938SOL     OW97820   7.815  10.912   1.649
31938SOL    HW197821   7.732  10.914   1.697
31938SOL    HW297822   7.797  10.856   1.573
31939SOL     OW97823   0.650   1.623   9.662
31939SOL    HW197824   0.692   1.616   9.576
31939SOL    HW297825   0.572   1.675   9.646
31940SOL     OW97826   0.100   6.088   3.966
31940SOL    HW197827   0.137   6.151   4.027
31940SOL    HW297828   0.051   6.027   4.021
31941SOL     OW97829   6.282  10.314   6.204
31941SOL    HW197830   6.317  10.392   6.247
31941SOL    HW297831   6.335  10.305   6.124
31942SOL     OW97832   9.338   9.823   2.088
31942SOL    HW197833   9.432   9.843   2.092
31942SOL    HW297834   9.314   9.799   2.177
31943SOL     OW97835   9.348   2.166   4.092
31943SOL    HW197836   9.386   2.244   4.132
31943SOL    HW297837   9.395   2.093   4.133
31944SOL     OW97838  10.021   4.581   3.993
31944SOL    HW197839  10.039   4.532   4.073
31944SOL    HW297840   9.926   4.586   3.988
31945SOL     OW97841  10.598   6.388   9.462
31945SOL    HW197842  10.566   6.438   9.387
31945SOL    HW297843  10.668   6.334   9.426
31946SOL     OW97844  10.289   3.701   9.456
31946SOL    HW197845  10.319   3.702   9.365
31946SOL    HW297846  10.230   3.626   9.461
31947SOL     OW97847   4.284   1.033   9.385
31947SOL    HW197848   4.337   1.032   9.464
31947SOL    HW297849   4.203   1.077   9.410
31948SOL     OW97850  10.571   3.471   2.360
31948SOL    HW197851  10.483   3.442   2.382
31948SOL    HW297852  10.583   3.443   2.269
31949SOL     OW97853   9.887   3.973   8.659
31949SOL    HW197854   9.973   3.956   8.698
31949SOL    HW297855   9.906   4.027   8.582
31950SOL     OW97856   7.811   1.269   6.093
31950SOL    HW197857   7.858   1.258   6.175
31950SOL    HW297858   7.736   1.324   6.115
31951SOL     OW97859   2.891   8.786   5.129
31951SOL    HW197860   2.980   8.752   5.135
31951SOL    HW297861   2.902   8.880   5.119
31952SOL     OW97862   2.487   6.510   6.805
31952SOL    HW197863   2.561   6.530   6.747
31952SOL    HW297864   2.425   6.463   6.748
31953SOL     OW97865   2.776   3.104   9.906
31953SOL    HW197866   2.696   3.053   9.893
31953SOL    HW297867   2.844   3.052   9.863
31954SOL     OW97868   1.794   7.611   3.128
31954SOL    HW197869   1.751   7.609   3.213
31954SOL    HW297870   1.750   7.542   3.077
31955SOL     OW97871  10.697   7.787   6.168
31955SOL    HW197872  10.622   7.730   6.150
31955SOL    HW297873  10.674   7.870   6.128
31956SOL     OW97874   5.408   2.492   0.522
31956SOL    HW197875   5.321   2.504   0.483
31956SOL    HW297876   5.443   2.580   0.531
31957SOL     OW97877   8.728   1.207   5.991
31957SOL    HW197878   8.788   1.132   5.995
31957SOL    HW297879   8.648   1.170   5.953
31958SOL     OW97880   8.031   8.303  10.102
31958SOL    HW197881   8.077   8.328  10.021
31958SOL    HW297882   8.072   8.220  10.127
31959SOL     OW97883   1.094   2.570   5.115
31959SOL    HW197884   1.078   2.649   5.063
31959SOL    HW297885   1.042   2.582   5.194
31960SOL     OW97886   0.042   7.797   6.305
31960SOL    HW197887   0.061   7.738   6.232
31960SOL    HW297888   0.025   7.881   6.263
31961SOL     OW97889   9.729   2.573   1.904
31961SOL    HW197890   9.644   2.548   1.867
31961SOL    HW297891   9.786   2.582   1.827
31962SOL     OW97892   7.846   1.659   5.978
31962SOL    HW197893   7.803   1.735   5.939
31962SOL    HW297894   7.811   1.584   5.929
31963SOL     OW97895   0.385   2.751   3.079
31963SOL    HW197896   0.449   2.821   3.086
31963SOL    HW297897   0.301   2.793   3.096
31964SOL     OW97898   3.749   8.959   2.087
31964SOL    HW197899   3.717   8.869   2.093
31964SOL    HW297900   3.799   8.961   2.005
31965SOL     OW97901   1.991   2.572  10.548
31965SOL    HW197902   1.940   2.503  10.590
31965SOL    HW297903   2.018   2.629  10.619
31966SOL     OW97904   4.860   3.401   8.571
31966SOL    HW197905   4.946   3.420   8.608
31966SOL    HW297906   4.798   3.427   8.639
31967SOL     OW97907   9.830   0.297   0.249
31967SOL    HW197908   9.885   0.255   0.183
31967SOL    HW297909   9.764   0.231   0.270
31968SOL     OW97910   2.645   5.877   5.065
31968SOL    HW197911   2.672   5.838   5.148
31968SOL    HW297912   2.699   5.832   4.999
31969SOL     OW97913   0.057   7.480   5.246
31969SOL    HW197914  -0.034   7.467   5.220
31969SOL    HW297915   0.081   7.399   5.291
31970SOL     OW97916   5.691   6.905   1.209
31970SOL    HW197917   5.612   6.956   1.192
31970SOL    HW297918   5.702   6.909   1.304
31971SOL     OW97919   8.050   5.989   6.462
31971SOL    HW197920   7.997   6.060   6.426
31971SOL    HW297921   8.114   5.970   6.393
31972SOL     OW97922   3.040   6.260   1.687
31972SOL    HW197923   3.061   6.344   1.726
31972SOL    HW297924   2.946   6.265   1.668
31973SOL     OW97925  10.581   7.968   3.566
31973SOL    HW197926  10.605   7.905   3.634
31973SOL    HW297927  10.663   8.011   3.544
31974SOL     OW97928   2.882  10.031   4.788
31974SOL    HW197929   2.881   9.997   4.698
31974SOL    HW297930   2.809  10.093   4.791
31975SOL     OW97931   6.460   7.026   7.225
31975SOL    HW197932   6.506   6.949   7.191
31975SOL    HW297933   6.403   6.991   7.294
31976SOL     OW97934   0.513   1.256   7.891
31976SOL    HW197935   0.464   1.332   7.921
31976SOL    HW297936   0.581   1.243   7.957
31977SOL     OW97937   8.705   5.135   7.096
31977SOL    HW197938   8.714   5.049   7.054
31977SOL    HW297939   8.727   5.197   7.026
31978SOL     OW97940   4.237   4.554   4.238
31978SOL    HW197941   4.252   4.648   4.239
31978SOL    HW297942   4.246   4.529   4.146
31979SOL     OW97943   0.361   2.510   1.675
31979SOL    HW197944   0.340   2.476   1.588
31979SOL    HW297945   0.314   2.593   1.680
31980SOL     OW97946   1.404   7.673   8.171
31980SOL    HW197947   1.492   7.641   8.148
31980SOL    HW297948   1.354   7.666   8.089
31981SOL     OW97949  10.479   8.498   5.217
31981SOL    HW197950  10.440   8.582   5.241
31981SOL    HW297951  10.424   8.465   5.146
31982SOL     OW97952  10.127   0.075   8.362
31982SOL    HW197953  10.045   0.098   8.404
31982SOL    HW297954  10.135   0.137   8.289
31983SOL     OW97955   8.681   3.322  10.119
31983SOL    HW197956   8.688   3.327  10.214
31983SOL    HW297957   8.734   3.395  10.086
31984SOL     OW97958   9.914   6.936   6.301
31984SOL    HW197959   9.842   6.978   6.346
31984SOL    HW297960   9.989   6.993   6.317
31985SOL     OW97961   6.856   8.933   3.792
31985SOL    HW197962   6.838   8.993   3.719
31985SOL    HW297963   6.793   8.957   3.859
31986SOL     OW97964   9.328   5.457   5.255
31986SOL    HW197965   9.337   5.538   5.205
31986SOL    HW297966   9.381   5.471   5.333
31987SOL     OW97967   3.465   6.950   0.215
31987SOL    HW197968   3.543   6.898   0.197
31987SOL    HW297969   3.467   6.964   0.309
31988SOL     OW97970   7.942   3.624   3.373
31988SOL    HW197971   7.866   3.682   3.374
31988SOL    HW297972   8.015   3.680   3.346
31989SOL     OW97973  10.734   5.952   4.527
31989SOL    HW197974  10.710   5.930   4.617
31989SOL    HW297975  10.733   6.047   4.524
31990SOL     OW97976   1.203   2.456   7.691
31990SOL    HW197977   1.174   2.436   7.602
31990SOL    HW297978   1.299   2.450   7.687
31991SOL     OW97979   2.224  10.575   5.223
31991SOL    HW197980   2.268  10.651   5.261
31991SOL    HW297981   2.291  10.535   5.167
31992SOL     OW97982   0.039  10.195   4.460
31992SOL    HW197983   0.034  10.129   4.390
31992SOL    HW297984  -0.027  10.260   4.435
31993SOL     OW97985   5.923   2.262   4.381
31993SOL    HW197986   6.013   2.275   4.352
31993SOL    HW297987   5.918   2.169   4.403
31994SOL     OW97988  10.812   5.822   4.911
31994SOL    HW197989  10.776   5.760   4.847
31994SOL    HW297990  10.755   5.899   4.904
31995SOL     OW97991   4.075   9.215   2.782
31995SOL    HW197992   4.103   9.297   2.821
31995SOL    HW297993   4.146   9.192   2.721
31996SOL     OW97994   7.765   3.166   5.089
31996SOL    HW197995   7.726   3.253   5.084
31996SOL    HW297996   7.691   3.106   5.093
31997SOL     OW97997   6.937   7.584   5.019
31997SOL    HW197998   6.876   7.521   4.981
31997SOL    HW297999   7.023   7.557   4.986
31998SOL     OW98000   4.030   9.484   6.306
31998SOL    HW198001   4.005   9.531   6.226
31998SOL    HW298002   3.957   9.498   6.366
31999SOL     OW98003   0.414   3.528   0.954
31999SOL    HW198004   0.396   3.452   0.899
31999SOL    HW298005   0.509   3.530   0.962
32000SOL     OW98006   9.448   5.079   4.434
32000SOL    HW198007   9.372   5.039   4.392
32000SOL    HW298008   9.436   5.173   4.422
32001SOL     OW98009   3.047   0.631   1.527
32001SOL    HW198010   3.081   0.589   1.448
32001SOL    HW298011   2.984   0.567   1.562
32002SOL     OW98012   9.337   1.003   5.229
32002SOL    HW198013   9.402   1.010   5.158
32002SOL    HW298014   9.389   0.996   5.309
32003SOL     OW98015   0.553   8.064   0.231
32003SOL    HW198016   0.522   7.974   0.243
32003SOL    HW298017   0.512   8.113   0.302
32004SOL     OW98018   9.204   4.171   0.982
32004SOL    HW198019   9.115   4.143   1.004
32004SOL    HW298020   9.239   4.205   1.064
32005SOL     OW98021   0.722   8.579   2.816
32005SOL    HW198022   0.651   8.570   2.879
32005SOL    HW298023   0.678   8.589   2.731
32006SOL     OW98024   3.683   6.355   6.548
32006SOL    HW198025   3.634   6.316   6.620
32006SOL    HW298026   3.718   6.280   6.500
32007SOL     OW98027  10.533   2.629   5.872
32007SOL    HW198028  10.593   2.556   5.854
32007SOL    HW298029  10.478   2.597   5.943
32008SOL     OW98030   9.817   0.233   2.099
32008SOL    HW198031   9.784   0.299   2.038
32008SOL    HW298032   9.760   0.239   2.175
32009SOL     OW98033  10.637   0.750   8.987
32009SOL    HW198034  10.638   0.834   9.033
32009SOL    HW298035  10.642   0.684   9.056
32010SOL     OW98036   4.004   3.206   5.514
32010SOL    HW198037   4.004   3.179   5.606
32010SOL    HW298038   3.940   3.276   5.510
32011SOL     OW98039  10.460  10.243   8.356
32011SOL    HW198040  10.446  10.153   8.385
32011SOL    HW298041  10.418  10.247   8.270
32012SOL     OW98042   0.572   6.139   6.079
32012SOL    HW198043   0.584   6.231   6.102
32012SOL    HW298044   0.532   6.100   6.156
32013SOL     OW98045   1.924   0.746   8.574
32013SOL    HW198046   1.860   0.677   8.594
32013SOL    HW298047   1.973   0.711   8.499
32014SOL     OW98048   4.335   7.563   5.521
32014SOL    HW198049   4.298   7.648   5.500
32014SOL    HW298050   4.323   7.554   5.615
32015SOL     OW98051   8.590   5.347   9.340
32015SOL    HW198052   8.606   5.426   9.288
32015SOL    HW298053   8.678   5.313   9.360
32016SOL     OW98054   9.742   4.895   0.105
32016SOL    HW198055   9.732   4.934   0.192
32016SOL    HW298056   9.716   4.964   0.044
32017SOL     OW98057   4.241  10.713   6.561
32017SOL    HW198058   4.207  10.647   6.621
32017SOL    HW298059   4.333  10.723   6.585
32018SOL     OW98060   2.633   3.719   5.693
32018SOL    HW198061   2.703   3.656   5.675
32018SOL    HW298062   2.579   3.717   5.614
32019SOL     OW98063   9.327   9.528   8.280
32019SOL    HW198064   9.262   9.486   8.223
32019SOL    HW298065   9.300   9.619   8.284
32020SOL     OW98066   9.071   8.529   7.940
32020SOL    HW198067   9.097   8.554   7.851
32020SOL    HW298068   9.041   8.438   7.931
32021SOL     OW98069  -0.004   2.090   0.034
32021SOL    HW198070   0.031   2.041  -0.040
32021SOL    HW298071   0.066   2.149   0.060
32022SOL     OW98072   4.499   4.025   7.885
32022SOL    HW198073   4.440   4.100   7.877
32022SOL    HW298074   4.453   3.953   7.842
32023SOL     OW98075   6.002   9.843   1.469
32023SOL    HW198076   6.093   9.815   1.478
32023SOL    HW298077   5.982   9.831   1.376
32024SOL     OW98078   2.446   9.195   3.428
32024SOL    HW198079   2.412   9.204   3.339
32024SOL    HW298080   2.400   9.261   3.478
32025SOL     OW98081   0.130   0.793   8.379
32025SOL    HW198082   0.044   0.788   8.336
32025SOL    HW298083   0.127   0.724   8.446
32026SOL     OW98084  11.020   3.959   2.716
32026SOL    HW198085  11.110   3.982   2.692
32026SOL    HW298086  10.976   4.043   2.729
32027SOL     OW98087   2.697   9.227   5.356
32027SOL    HW198088   2.736   9.144   5.329
32027SOL    HW298089   2.733   9.291   5.295
32028SOL     OW98090   1.677   0.544   4.428
32028SOL    HW198091   1.687   0.623   4.481
32028SOL    HW298092   1.590   0.551   4.390
32029SOL     OW98093   2.479   6.030   2.285
32029SOL    HW198094   2.385   6.031   2.266
32029SOL    HW298095   2.496   6.111   2.332
32030SOL     OW98096   8.205   6.687   9.309
32030SOL    HW198097   8.237   6.754   9.368
32030SOL    HW298098   8.268   6.615   9.317
32031SOL     OW98099  10.879   3.130   5.797
32031SOL    HW198100  10.927   3.205   5.831
32031SOL    HW298101  10.929   3.054   5.827
32032SOL     OW98102   6.571   2.597   2.316
32032SOL    HW198103   6.556   2.687   2.288
32032SOL    HW298104   6.488   2.570   2.356
32033SOL     OW98105   9.799   4.756   8.026
32033SOL    HW198106   9.893   4.738   8.032
32033SOL    HW298107   9.787   4.786   7.936
32034SOL     OW98108   3.419   6.863   8.453
32034SOL    HW198109   3.333   6.866   8.495
32034SOL    HW298110   3.455   6.951   8.465
32035SOL     OW98111   7.945   4.252   8.064
32035SOL    HW198112   7.949   4.170   8.113
32035SOL    HW298113   7.853   4.260   8.039
32036SOL     OW98114   1.831   5.230   6.220
32036SOL    HW198115   1.783   5.313   6.218
32036SOL    HW298116   1.828   5.203   6.311
32037SOL     OW98117   2.014   3.767   7.215
32037SOL    HW198118   2.050   3.746   7.301
32037SOL    HW298119   2.071   3.836   7.181
32038SOL     OW98120   8.447   5.048   4.541
32038SOL    HW198121   8.367   5.099   4.529
32038SOL    HW298122   8.418   4.968   4.585
32039SOL     OW98123   4.197   2.629   6.080
32039SOL    HW198124   4.235   2.716   6.084
32039SOL    HW298125   4.104   2.642   6.097
32040SOL     OW98126   0.038   5.191   3.941
32040SOL    HW198127   0.127   5.226   3.941
32040SOL    HW298128  -0.010   5.243   4.006
32041SOL     OW98129   7.900   5.306   5.858
32041SOL    HW198130   7.933   5.221   5.887
32041SOL    HW298131   7.865   5.346   5.937
32042SOL     OW98132   5.752   5.270   2.393
32042SOL    HW198133   5.771   5.231   2.307
32042SOL    HW298134   5.835   5.309   2.421
32043SOL     OW98135   7.006   2.966   3.594
32043SOL    HW198136   6.931   2.999   3.642
32043SOL    HW298137   7.056   2.916   3.658
32044SOL     OW98138   4.889   6.700   0.675
32044SOL    HW198139   4.803   6.694   0.633
32044SOL    HW298140   4.888   6.630   0.740
32045SOL     OW98141   5.681  10.054   4.341
32045SOL    HW198142   5.728   9.974   4.365
32045SOL    HW298143   5.652  10.038   4.251
32046SOL     OW98144   8.895   5.297   5.959
32046SOL    HW198145   8.940   5.379   5.938
32046SOL    HW298146   8.965   5.237   5.985
32047SOL     OW98147   2.247   9.339   9.567
32047SOL    HW198148   2.218   9.391   9.642
32047SOL    HW298149   2.248   9.249   9.599
32048SOL     OW98150   5.206   5.052   4.262
32048SOL    HW198151   5.282   4.993   4.260
32048SOL    HW298152   5.244   5.139   4.269
32049SOL     OW98153   8.669   4.274   4.258
32049SOL    HW198154   8.717   4.193   4.237
32049SOL    HW298155   8.621   4.253   4.338
32050SOL     OW98156   7.332   8.062   3.860
32050SOL    HW198157   7.322   7.981   3.910
32050SOL    HW298158   7.248   8.073   3.815
32051SOL     OW98159   2.481   8.578   7.997
32051SOL    HW198160   2.575   8.576   8.014
32051SOL    HW298161   2.450   8.655   8.043
32052SOL     OW98162   6.746   4.416   6.897
32052SOL    HW198163   6.836   4.439   6.919
32052SOL    HW298164   6.694   4.490   6.927
32053SOL     OW98165   9.044   6.492   1.232
32053SOL    HW198166   9.130   6.470   1.196
32053SOL    HW298167   8.990   6.416   1.210
32054SOL     OW98168   8.031   2.827   8.541
32054SOL    HW198169   8.048   2.872   8.624
32054SOL    HW298170   8.113   2.836   8.491
32055SOL     OW98171   2.393   2.939   3.560
32055SOL    HW198172   2.308   2.976   3.536
32055SOL    HW298173   2.382   2.908   3.650
32056SOL     OW98174   7.452   9.333   2.091
32056SOL    HW198175   7.377   9.281   2.119
32056SOL    HW298176   7.513   9.328   2.164
32057SOL     OW98177   8.813   5.782   7.297
32057SOL    HW198178   8.773   5.868   7.288
32057SOL    HW298179   8.761   5.725   7.239
32058SOL     OW98180   1.147   6.080   8.824
32058SOL    HW198181   1.074   6.055   8.767
32058SOL    HW298182   1.165   6.001   8.875
32059SOL     OW98183   7.893  10.096   5.506
32059SOL    HW198184   7.900  10.045   5.425
32059SOL    HW298185   7.864  10.032   5.571
32060SOL     OW98186   2.167   4.644   6.380
32060SOL    HW198187   2.152   4.603   6.294
32060SOL    HW298188   2.094   4.704   6.391
32061SOL     OW98189   2.106   6.434   6.541
32061SOL    HW198190   2.047   6.481   6.600
32061SOL    HW298191   2.054   6.419   6.462
32062SOL     OW98192   8.191   5.101   7.480
32062SOL    HW198193   8.145   5.133   7.557
32062SOL    HW298194   8.275   5.146   7.482
32063SOL     OW98195   3.535   0.532   8.778
32063SOL    HW198196   3.600   0.602   8.778
32063SOL    HW298197   3.537   0.497   8.867
32064SOL     OW98198   9.686   6.937   4.135
32064SOL    HW198199   9.767   6.986   4.145
32064SOL    HW298200   9.645   6.974   4.057
32065SOL     OW98201   4.282   4.353  10.420
32065SOL    HW198202   4.345   4.304  10.366
32065SOL    HW298203   4.324   4.437  10.437
32066SOL     OW98204   2.404   8.546   1.161
32066SOL    HW198205   2.377   8.633   1.191
32066SOL    HW298206   2.416   8.556   1.066
32067SOL     OW98207  10.015   9.126   9.046
32067SOL    HW198208   9.977   9.152   8.962
32067SOL    HW298209  10.011   9.205   9.100
32068SOL     OW98210   0.160  10.092  10.587
32068SOL    HW198211   0.214  10.102  10.508
32068SOL    HW298212   0.089  10.034  10.560
32069SOL     OW98213  10.544   9.555   9.480
32069SOL    HW198214  10.552   9.644   9.447
32069SOL    HW298215  10.535   9.501   9.401
32070SOL     OW98216   8.094   2.033   5.042
32070SOL    HW198217   8.123   2.122   5.061
32070SOL    HW298218   8.165   1.977   5.074
32071SOL     OW98219   8.398   2.080   7.787
32071SOL    HW198220   8.363   1.998   7.751
32071SOL    HW298221   8.386   2.143   7.716
32072SOL     OW98222   5.832   7.427   6.570
32072SOL    HW198223   5.777   7.465   6.502
32072SOL    HW298224   5.781   7.354   6.604
32073SOL     OW98225   9.111   6.844   7.003
32073SOL    HW198226   9.017   6.830   7.012
32073SOL    HW298227   9.129   6.830   6.910
32074SOL     OW98228   4.249   3.240   6.861
32074SOL    HW198229   4.208   3.154   6.849
32074SOL    HW298230   4.278   3.240   6.952
32075SOL     OW98231   8.726   2.771   7.226
32075SOL    HW198232   8.689   2.690   7.191
32075SOL    HW298233   8.697   2.838   7.164
32076SOL     OW98234  10.776   1.209   0.345
32076SOL    HW198235  10.696   1.260   0.357
32076SOL    HW298236  10.774   1.182   0.253
32077SOL     OW98237   9.612   9.272   4.718
32077SOL    HW198238   9.548   9.234   4.779
32077SOL    HW298239   9.608   9.366   4.734
32078SOL     OW98240  10.891   3.910   7.916
32078SOL    HW198241  10.843   3.845   7.967
32078SOL    HW298242  10.960   3.859   7.872
32079SOL     OW98243   1.356   2.436   1.345
32079SOL    HW198244   1.295   2.490   1.294
32079SOL    HW298245   1.398   2.380   1.279
32080SOL     OW98246   0.102   5.013   0.403
32080SOL    HW198247   0.071   5.012   0.312
32080SOL    HW298248   0.092   5.104   0.431
32081SOL     OW98249   5.329   1.797   8.355
32081SOL    HW198250   5.360   1.723   8.408
32081SOL    HW298251   5.300   1.756   8.273
32082SOL     OW98252   6.591   9.058   9.418
32082SOL    HW198253   6.637   9.125   9.469
32082SOL    HW298254   6.601   8.977   9.469
32083SOL     OW98255   6.952   3.807   0.680
32083SOL    HW198256   6.866   3.780   0.649
32083SOL    HW298257   7.012   3.778   0.611
32084SOL     OW98258   0.969   2.286   4.041
32084SOL    HW198259   1.038   2.319   3.983
32084SOL    HW298260   1.012   2.217   4.092
32085SOL     OW98261   8.579   3.443   1.999
32085SOL    HW198262   8.613   3.480   2.080
32085SOL    HW298263   8.543   3.518   1.952
32086SOL     OW98264   8.262   2.322   9.587
32086SOL    HW198265   8.230   2.255   9.647
32086SOL    HW298266   8.279   2.274   9.505
32087SOL     OW98267   9.310   9.383   7.128
32087SOL    HW198268   9.329   9.289   7.130
32087SOL    HW298269   9.280   9.403   7.216
32088SOL     OW98270  10.852   6.420   4.052
32088SOL    HW198271  10.780   6.423   3.989
32088SOL    HW298272  10.920   6.474   4.012
32089SOL     OW98273   5.875   7.387   4.357
32089SOL    HW198274   5.961   7.352   4.379
32089SOL    HW298275   5.849   7.438   4.433
32090SOL     OW98276   3.769   4.470   5.309
32090SOL    HW198277   3.706   4.461   5.380
32090SOL    HW298278   3.752   4.395   5.251
32091SOL     OW98279   7.330   6.843   9.167
32091SOL    HW198280   7.343   6.921   9.220
32091SOL    HW298281   7.333   6.771   9.230
32092SOL     OW98282   1.188   9.785   7.150
32092SOL    HW198283   1.204   9.690   7.146
32092SOL    HW298284   1.115   9.794   7.211
32093SOL     OW98285   4.613   4.627   8.201
32093SOL    HW198286   4.566   4.582   8.271
32093SOL    HW298287   4.555   4.698   8.174
32094SOL     OW98288  10.458   3.190   7.447
32094SOL    HW198289  10.376   3.217   7.405
32094SOL    HW298290  10.439   3.103   7.483
32095SOL     OW98291   9.458   7.476   8.111
32095SOL    HW198292   9.379   7.426   8.131
32095SOL    HW298293   9.523   7.444   8.173
32096SOL     OW98294  10.825   4.744   6.868
32096SOL    HW198295  10.748   4.700   6.830
32096SOL    HW298296  10.822   4.833   6.832
32097SOL     OW98297   7.791   4.492   6.397
32097SOL    HW198298   7.820   4.462   6.483
32097SOL    HW298299   7.727   4.426   6.369
32098SOL     OW98300   8.111   5.293   7.662
32098SOL    HW198301   8.048   5.321   7.728
32098SOL    HW298302   8.164   5.370   7.645
32099SOL     OW98303   8.560   2.562   6.604
32099SOL    HW198304   8.556   2.498   6.533
32099SOL    HW298305   8.475   2.605   6.602
32100SOL     OW98306   3.716   5.134   5.721
32100SOL    HW198307   3.656   5.085   5.778
32100SOL    HW298308   3.719   5.222   5.758
32101SOL     OW98309   9.735  10.386   4.405
32101SOL    HW198310   9.728  10.472   4.365
32101SOL    HW298311   9.826  10.380   4.434
32102SOL     OW98312   7.845   3.584   9.352
32102SOL    HW198313   7.817   3.646   9.419
32102SOL    HW298314   7.873   3.639   9.279
32103SOL     OW98315   5.137   6.710   6.661
32103SOL    HW198316   5.220   6.662   6.669
32103SOL    HW298317   5.080   6.670   6.726
32104SOL     OW98318   9.079   6.114   3.499
32104SOL    HW198319   9.008   6.174   3.520
32104SOL    HW298320   9.050   6.029   3.531
32105SOL     OW98321   7.785   9.448   4.472
32105SOL    HW198322   7.818   9.458   4.561
32105SOL    HW298323   7.690   9.444   4.481
32106SOL     OW98324   9.679   2.700   2.781
32106SOL    HW198325   9.733   2.777   2.800
32106SOL    HW298326   9.589   2.729   2.797
32107SOL     OW98327   7.813   2.673   7.858
32107SOL    HW198328   7.813   2.669   7.762
32107SOL    HW298329   7.764   2.752   7.878
32108SOL     OW98330   0.062   8.849   9.233
32108SOL    HW198331  -0.030   8.874   9.224
32108SOL    HW298332   0.062   8.754   9.221
32109SOL     OW98333   8.443   8.052   7.422
32109SOL    HW198334   8.405   8.139   7.429
32109SOL    HW298335   8.431   8.013   7.508
32110SOL     OW98336   8.959   2.291   1.744
32110SOL    HW198337   8.919   2.302   1.830
32110SOL    HW298338   8.922   2.361   1.690
32111SOL     OW98339   8.551  10.328   7.237
32111SOL    HW198340   8.546  10.414   7.279
32111SOL    HW298341   8.463  10.314   7.201
32112SOL     OW98342   6.040   6.413   4.136
32112SOL    HW198343   6.016   6.489   4.083
32112SOL    HW298344   6.078   6.450   4.215
32113SOL     OW98345   2.148   2.927   7.505
32113SOL    HW198346   2.060   2.927   7.467
32113SOL    HW298347   2.145   2.993   7.574
32114SOL     OW98348   9.431   3.960   3.173
32114SOL    HW198349   9.515   3.917   3.191
32114SOL    HW298350   9.455   4.045   3.136
32115SOL     OW98351   0.309   6.789   3.702
32115SOL    HW198352   0.233   6.768   3.756
32115SOL    HW298353   0.341   6.704   3.672
32116SOL     OW98354   7.387   3.318   6.275
32116SOL    HW198355   7.411   3.410   6.282
32116SOL    HW298356   7.471   3.271   6.280
32117SOL     OW98357  10.028   0.241   6.719
32117SOL    HW198358   9.989   0.158   6.692
32117SOL    HW298359  10.112   0.216   6.758
32118SOL     OW98360   5.928   1.413   4.678
32118SOL    HW198361   5.845   1.400   4.723
32118SOL    HW298362   5.990   1.436   4.747
32119SOL     OW98363   9.303   4.966   6.310
32119SOL    HW198364   9.353   5.004   6.238
32119SOL    HW298365   9.351   4.992   6.388
32120SOL     OW98366   3.233   9.351   0.178
32120SOL    HW198367   3.148   9.360   0.135
32120SOL    HW298368   3.235   9.421   0.243
32121SOL     OW98369   1.698   1.083   3.175
32121SOL    HW198370   1.663   1.048   3.093
32121SOL    HW298371   1.783   1.120   3.151
32122SOL     OW98372   5.019   9.231   1.289
32122SOL    HW198373   4.963   9.157   1.313
32122SOL    HW298374   4.960   9.294   1.248
32123SOL     OW98375   2.590   4.160   7.244
32123SOL    HW198376   2.657   4.228   7.249
32123SOL    HW298377   2.588   4.122   7.332
32124SOL     OW98378   6.327  10.967   7.631
32124SOL    HW198379   6.378  10.940   7.707
32124SOL    HW298380   6.382  11.032   7.587
32125SOL     OW98381   9.060  10.781   8.492
32125SOL    HW198382   8.965  10.792   8.500
32125SOL    HW298383   9.093  10.869   8.473
32126SOL     OW98384   8.947   5.041   2.577
32126SOL    HW198385   9.043   5.044   2.570
32126SOL    HW298386   8.928   5.077   2.663
32127SOL     OW98387   9.390   1.053   4.293
32127SOL    HW198388   9.394   1.144   4.321
32127SOL    HW298389   9.453   1.047   4.221
32128SOL     OW98390   0.201   3.043   4.971
32128SOL    HW198391   0.119   3.059   4.924
32128SOL    HW298392   0.175   3.031   5.062
32129SOL     OW98393   8.179   5.275   5.682
32129SOL    HW198394   8.173   5.303   5.591
32129SOL    HW298395   8.107   5.319   5.726
32130SOL     OW98396   8.525   1.643   3.165
32130SOL    HW198397   8.521   1.555   3.203
32130SOL    HW298398   8.606   1.643   3.114
32131SOL     OW98399   0.358   6.041   5.867
32131SOL    HW198400   0.270   6.059   5.901
32131SOL    HW298401   0.415   6.044   5.944
32132SOL     OW98402   8.593  10.528   8.455
32132SOL    HW198403   8.595  10.538   8.360
32132SOL    HW298404   8.511  10.482   8.472
32133SOL     OW98405   4.111   0.327   0.366
32133SOL    HW198406   4.147   0.319   0.277
32133SOL    HW298407   4.100   0.236   0.396
32134SOL     OW98408   0.053  10.009   1.907
32134SOL    HW198409   0.067   9.963   1.824
32134SOL    HW298410  -0.014   9.957   1.952
32135SOL     OW98411   1.632   1.830   5.196
32135SOL    HW198412   1.716   1.814   5.239
32135SOL    HW298413   1.566   1.798   5.257
32136SOL     OW98414   8.748   6.405   8.168
32136SOL    HW198415   8.725   6.466   8.238
32136SOL    HW298416   8.666   6.387   8.123
32137SOL     OW98417   0.371   0.452   2.578
32137SOL    HW198418   0.464   0.462   2.597
32137SOL    HW298419   0.366   0.450   2.482
32138SOL     OW98420   1.773   5.406   3.444
32138SOL    HW198421   1.791   5.500   3.445
32138SOL    HW298422   1.689   5.397   3.489
32139SOL     OW98423   9.048  10.461   4.125
32139SOL    HW198424   9.015  10.546   4.095
32139SOL    HW298425   9.103  10.482   4.200
32140SOL     OW98426   5.100   7.864   7.143
32140SOL    HW198427   5.130   7.946   7.181
32140SOL    HW298428   5.087   7.883   7.050
32141SOL     OW98429   8.802  10.819   5.468
32141SOL    HW198430   8.755  10.811   5.385
32141SOL    HW298431   8.874  10.879   5.449
32142SOL     OW98432   3.746   4.958   6.247
32142SOL    HW198433   3.821   4.962   6.187
32142SOL    HW298434   3.758   4.876   6.295
32143SOL     OW98435   0.308   0.273   6.495
32143SOL    HW198436   0.324   0.337   6.564
32143SOL    HW298437   0.330   0.319   6.414
32144SOL     OW98438   9.910   4.858   7.043
32144SOL    HW198439  10.005   4.856   7.054
32144SOL    HW298440   9.880   4.777   7.084
32145SOL     OW98441   5.359   4.782   1.252
32145SOL    HW198442   5.266   4.778   1.272
32145SOL    HW298443   5.395   4.843   1.316
32146SOL     OW98444   8.584  10.255   8.663
32146SOL    HW198445   8.500  10.228   8.626
32146SOL    HW298446   8.562  10.289   8.749
32147SOL     OW98447   4.879   3.715   8.903
32147SOL    HW198448   4.794   3.676   8.923
32147SOL    HW298449   4.938   3.679   8.969
32148SOL     OW98450  10.697   8.039   3.004
32148SOL    HW198451  10.761   8.109   2.993
32148SOL    HW298452  10.619   8.070   2.958
32149SOL     OW98453   5.031   9.687   6.251
32149SOL    HW198454   5.101   9.690   6.186
32149SOL    HW298455   4.965   9.629   6.212
32150SOL     OW98456   4.291   0.469   6.000
32150SOL    HW198457   4.349   0.511   5.937
32150SOL    HW298458   4.287   0.377   5.971
32151SOL     OW98459   8.912   3.056  10.859
32151SOL    HW198460   8.857   3.007  10.921
32151SOL    HW298461   8.888   3.147  10.872
32152SOL     OW98462  11.071   4.070  10.736
32152SOL    HW198463  11.066   4.155  10.693
32152SOL    HW298464  11.158   4.037  10.714
32153SOL     OW98465   6.803   4.043  10.815
32153SOL    HW198466   6.823   3.995  10.734
32153SOL    HW298467   6.870   4.111  10.820
32154SOL     OW98468   5.682   4.982   7.452
32154SOL    HW198469   5.709   4.906   7.400
32154SOL    HW298470   5.587   4.974   7.458
32155SOL     OW98471  10.141   3.499   9.245
32155SOL    HW198472  10.135   3.405   9.265
32155SOL    HW298473  10.100   3.542   9.320
32156SOL     OW98474  10.057   6.694   4.733
32156SOL    HW198475  10.022   6.780   4.756
32156SOL    HW298476  10.046   6.688   4.638
32157SOL     OW98477   6.587   6.572   6.944
32157SOL    HW198478   6.570   6.617   6.861
32157SOL    HW298479   6.670   6.526   6.930
32158SOL     OW98480   8.548   2.338   6.425
32158SOL    HW198481   8.575   2.326   6.334
32158SOL    HW298482   8.630   2.349   6.473
32159SOL     OW98483   6.264   5.420   9.699
32159SOL    HW198484   6.188   5.474   9.717
32159SOL    HW298485   6.300   5.455   9.617
32160SOL     OW98486   8.896   0.767   5.337
32160SOL    HW198487   8.947   0.848   5.332
32160SOL    HW298488   8.923   0.718   5.259
32161SOL     OW98489   0.249   3.201   0.253
32161SOL    HW198490   0.194   3.163   0.184
32161SOL    HW298491   0.334   3.159   0.242
32162SOL     OW98492   9.644   7.369   6.586
32162SOL    HW198493   9.675   7.430   6.519
32162SOL    HW298494   9.549   7.368   6.575
32163SOL     OW98495  10.807   3.250   3.264
32163SOL    HW198496  10.813   3.341   3.236
32163SOL    HW298497  10.891   3.211   3.239
32164SOL     OW98498   3.740   3.709   9.426
32164SOL    HW198499   3.816   3.677   9.475
32164SOL    HW298500   3.691   3.630   9.403
32165SOL     OW98501   8.758   1.903   5.920
32165SOL    HW198502   8.815   1.921   5.994
32165SOL    HW298503   8.701   1.832   5.950
32166SOL     OW98504   9.449   9.974   2.979
32166SOL    HW198505   9.366   9.964   2.932
32166SOL    HW298506   9.456   9.895   3.033
32167SOL     OW98507   1.029   2.966   8.204
32167SOL    HW198508   1.041   2.873   8.184
32167SOL    HW298509   0.937   2.973   8.229
32168SOL     OW98510   0.965   2.777   5.975
32168SOL    HW198511   0.951   2.709   5.909
32168SOL    HW298512   0.920   2.744   6.053
32169SOL     OW98513   3.035   5.358   7.564
32169SOL    HW198514   3.119   5.340   7.522
32169SOL    HW298515   2.993   5.272   7.570
32170SOL     OW98516  10.927   1.798   5.793
32170SOL    HW198517  10.932   1.735   5.720
32170SOL    HW298518  10.850   1.771   5.842
32171SOL     OW98519   5.380   1.442  10.278
32171SOL    HW198520   5.466   1.484  10.274
32171SOL    HW298521   5.345   1.451  10.189
32172SOL     OW98522   8.823   4.429   0.458
32172SOL    HW198523   8.762   4.425   0.384
32172SOL    HW298524   8.851   4.338   0.470
32173SOL     OW98525   0.454   3.525   6.409
32173SOL    HW198526   0.369   3.563   6.386
32173SOL    HW298527   0.518   3.582   6.367
32174SOL     OW98528   9.560   1.916   2.096
32174SOL    HW198529   9.487   1.896   2.038
32174SOL    HW298530   9.524   1.910   2.184
32175SOL     OW98531   8.336   1.661   4.698
32175SOL    HW198532   8.274   1.687   4.765
32175SOL    HW298533   8.406   1.617   4.746
32176SOL     OW98534   6.249   6.428   4.804
32176SOL    HW198535   6.230   6.516   4.772
32176SOL    HW298536   6.165   6.383   4.802
32177SOL     OW98537   6.674   9.901   1.121
32177SOL    HW198538   6.714   9.894   1.034
32177SOL    HW298539   6.583   9.923   1.103
32178SOL     OW98540   7.526   3.012   3.999
32178SOL    HW198541   7.586   2.994   4.071
32178SOL    HW298542   7.481   3.092   4.025
32179SOL     OW98543   8.550  10.956   6.990
32179SOL    HW198544   8.534  10.982   7.080
32179SOL    HW298545   8.465  10.924   6.959
32180SOL     OW98546   5.121   3.589   2.351
32180SOL    HW198547   5.139   3.495   2.351
32180SOL    HW298548   5.179   3.624   2.418
32181SOL     OW98549   9.817   8.665   0.897
32181SOL    HW198550   9.738   8.709   0.928
32181SOL    HW298551   9.806   8.574   0.925
32182SOL     OW98552   2.418   4.137   5.888
32182SOL    HW198553   2.432   4.064   5.828
32182SOL    HW298554   2.498   4.140   5.941
32183SOL     OW98555   3.606   2.912  10.564
32183SOL    HW198556   3.642   2.854  10.631
32183SOL    HW298557   3.679   2.927  10.504
32184SOL     OW98558  11.029   4.734   7.407
32184SOL    HW198559  11.084   4.742   7.329
32184SOL    HW298560  10.983   4.818   7.413
32185SOL     OW98561  10.413  10.139   5.824
32185SOL    HW198562  10.486  10.129   5.763
32185SOL    HW298563  10.430  10.222   5.868
32186SOL     OW98564  10.371   5.586   3.146
32186SOL    HW198565  10.322   5.570   3.065
32186SOL    HW298566  10.402   5.499   3.172
32187SOL     OW98567   7.547   2.734   8.054
32187SOL    HW198568   7.533   2.640   8.065
32187SOL    HW298569   7.632   2.750   8.094
32188SOL     OW98570   8.216  10.948   6.577
32188SOL    HW198571   8.192  10.917   6.490
32188SOL    HW298572   8.226  11.043   6.566
32189SOL     OW98573   5.281   2.676   9.784
32189SOL    HW198574   5.338   2.663   9.707
32189SOL    HW298575   5.278   2.590   9.825
32190SOL     OW98576   2.963   3.717   9.295
32190SOL    HW198577   3.050   3.741   9.262
32190SOL    HW298578   2.977   3.700   9.388
32191SOL     OW98579   4.867   8.170   9.672
32191SOL    HW198580   4.836   8.192   9.759
32191SOL    HW298581   4.790   8.177   9.616
32192SOL     OW98582   0.651   7.050   9.387
32192SOL    HW198583   0.743   7.054   9.413
32192SOL    HW298584   0.644   7.112   9.314
32193SOL     OW98585   5.785   7.274   0.843
32193SOL    HW198586   5.742   7.226   0.772
32193SOL    HW298587   5.715   7.294   0.904
32194SOL     OW98588   9.086   7.785   5.547
32194SOL    HW198589   9.148   7.778   5.474
32194SOL    HW298590   9.135   7.832   5.615
32195SOL     OW98591   7.571   1.877   6.527
32195SOL    HW198592   7.562   1.791   6.484
32195SOL    HW298593   7.486   1.892   6.568
32196SOL     OW98594   9.146   6.634   9.255
32196SOL    HW198595   9.109   6.697   9.316
32196SOL    HW298596   9.108   6.550   9.281
32197SOL     OW98597   8.067   4.243   9.024
32197SOL    HW198598   8.099   4.310   9.085
32197SOL    HW298599   7.973   4.236   9.041
32198SOL     OW98600  10.579   1.708   6.107
32198SOL    HW198601  10.650   1.677   6.163
32198SOL    HW298602  10.554   1.793   6.143
32199SOL     OW98603   7.261   4.629   7.391
32199SOL    HW198604   7.274   4.567   7.463
32199SOL    HW298605   7.237   4.574   7.316
32200SOL     OW98606   2.931  10.013   5.033
32200SOL    HW198607   2.945   9.919   5.046
32200SOL    HW298608   2.905  10.021   4.941
32201SOL     OW98609  10.203   5.448   7.042
32201SOL    HW198610  10.212   5.536   7.077
32201SOL    HW298611  10.112   5.424   7.061
32202SOL     OW98612   2.514   5.995   9.478
32202SOL    HW198613   2.528   6.040   9.395
32202SOL    HW298614   2.470   5.913   9.453
32203SOL     OW98615   7.847   9.139   9.616
32203SOL    HW198616   7.785   9.196   9.570
32203SOL    HW298617   7.810   9.130   9.704
32204SOL     OW98618  10.329   6.427   6.794
32204SOL    HW198619  10.304   6.435   6.886
32204SOL    HW298620  10.292   6.504   6.752
32205SOL     OW98621   8.126   4.622   5.329
32205SOL    HW198622   8.131   4.655   5.239
32205SOL    HW298623   8.042   4.576   5.333
32206SOL     OW98624   4.300   2.612   0.134
32206SOL    HW198625   4.253   2.656   0.063
32206SOL    HW298626   4.344   2.683   0.181
32207SOL     OW98627   0.553   6.630   5.333
32207SOL    HW198628   0.526   6.618   5.424
32207SOL    HW298629   0.570   6.541   5.301
32208SOL     OW98630   7.250   6.383   8.195
32208SOL    HW198631   7.278   6.316   8.132
32208SOL    HW298632   7.229   6.334   8.274
32209SOL     OW98633   7.040   9.624  10.722
32209SOL    HW198634   7.088   9.661  10.796
32209SOL    HW298635   7.031   9.531  10.743
32210SOL     OW98636   9.902   0.144  10.757
32210SOL    HW198637   9.811   0.122  10.777
32210SOL    HW298638   9.903   0.239  10.753
32211SOL     OW98639  10.335   1.441   1.143
32211SOL    HW198640  10.320   1.523   1.189
32211SOL    HW298641  10.327   1.463   1.050
32212SOL     OW98642   0.885   8.457   4.823
32212SOL    HW198643   0.890   8.522   4.753
32212SOL    HW298644   0.793   8.456   4.848
32213SOL     OW98645   8.582   6.297   6.316
32213SOL    HW198646   8.532   6.297   6.234
32213SOL    HW298647   8.516   6.286   6.384
32214SOL     OW98648  10.391   3.859  10.833
32214SOL    HW198649  10.435   3.905  10.904
32214SOL    HW298650  10.439   3.885  10.754
32215SOL     OW98651   4.651   7.875  10.938
32215SOL    HW198652   4.608   7.806  10.887
32215SOL    HW298653   4.580   7.931  10.966
32216SOL     OW98654  10.168   7.930   9.265
32216SOL    HW198655  10.119   7.938   9.183
32216SOL    HW298656  10.202   8.018   9.281
32217SOL     OW98657   5.945   0.280   3.408
32217SOL    HW198658   5.910   0.228   3.336
32217SOL    HW298659   6.027   0.236   3.432
32218SOL     OW98660   2.023   4.329  10.414
32218SOL    HW198661   2.033   4.329  10.509
32218SOL    HW298662   1.971   4.407  10.394
32219SOL     OW98663   8.029   5.916   0.967
32219SOL    HW198664   8.080   5.964   1.032
32219SOL    HW298665   7.943   5.904   1.007
32220SOL     OW98666   6.614  11.064   6.514
32220SOL    HW198667   6.531  11.099   6.482
32220SOL    HW298668   6.626  10.983   6.465
32221SOL     OW98669   1.238   0.606   7.235
32221SOL    HW198670   1.204   0.631   7.149
32221SOL    HW298671   1.303   0.673   7.255
32222SOL     OW98672   8.001   7.764   3.268
32222SOL    HW198673   7.930   7.791   3.326
32222SOL    HW298674   7.969   7.786   3.180
32223SOL     OW98675  10.017   1.356   2.933
32223SOL    HW198676  10.027   1.448   2.908
32223SOL    HW298677  10.060   1.349   3.018
32224SOL     OW98678  10.802   5.145   0.845
32224SOL    HW198679  10.717   5.149   0.800
32224SOL    HW298680  10.862   5.192   0.787
32225SOL     OW98681   1.882   8.748   7.365
32225SOL    HW198682   1.974   8.736   7.387
32225SOL    HW298683   1.879   8.741   7.269
32226SOL     OW98684   2.158   8.671   7.407
32226SOL    HW198685   2.224   8.678   7.476
32226SOL    HW298686   2.166   8.581   7.375
32227SOL     OW98687   5.809   2.686  10.536
32227SOL    HW198688   5.815   2.679  10.440
32227SOL    HW298689   5.888   2.734  10.561
32228SOL     OW98690   8.148  10.801   0.833
32228SOL    HW198691   8.144  10.842   0.746
32228SOL    HW298692   8.087  10.852   0.886
32229SOL     OW98693  11.094   3.817   5.371
32229SOL    HW198694  11.071   3.805   5.463
32229SOL    HW298695  11.013   3.800   5.323
32230SOL     OW98696   5.429   4.494   5.958
32230SOL    HW198697   5.373   4.521   5.885
32230SOL    HW298698   5.369   4.460   6.024
32231SOL     OW98699   8.757   2.500  10.258
32231SOL    HW198700   8.839   2.528  10.298
32231SOL    HW298701   8.691   2.558  10.296
32232SOL     OW98702   8.047   7.273   0.240
32232SOL    HW198703   7.998   7.206   0.191
32232SOL    HW298704   8.092   7.224   0.309
32233SOL     OW98705   0.361   1.043   2.419
32233SOL    HW198706   0.320   0.983   2.482
32233SOL    HW298707   0.302   1.118   2.415
32234SOL     OW98708  10.619   5.642   9.772
32234SOL    HW198709  10.540   5.589   9.787
32234SOL    HW298710  10.607   5.680   9.685
32235SOL     OW98711  10.139   5.046   0.570
32235SOL    HW198712  10.136   5.060   0.664
32235SOL    HW298713  10.228   5.070   0.545
32236SOL     OW98714   5.652   9.961   5.639
32236SOL    HW198715   5.641  10.037   5.583
32236SOL    HW298716   5.726   9.983   5.696
32237SOL     OW98717   1.388   3.724   7.074
32237SOL    HW198718   1.353   3.805   7.111
32237SOL    HW298719   1.351   3.720   6.985
32238SOL     OW98720   1.491   9.923   8.468
32238SOL    HW198721   1.491   9.883   8.381
32238SOL    HW298722   1.570   9.977   8.469
32239SOL     OW98723   0.500   6.386   7.075
32239SOL    HW198724   0.486   6.442   6.998
32239SOL    HW298725   0.432   6.411   7.136
32240SOL     OW98726   7.889   4.971  10.393
32240SOL    HW198727   7.973   4.953  10.435
32240SOL    HW298728   7.841   4.888  10.399
32241SOL     OW98729   6.894   9.842   9.225
32241SOL    HW198730   6.886   9.936   9.213
32241SOL    HW298731   6.963   9.832   9.290
32242SOL     OW98732   0.274   5.544   9.364
32242SOL    HW198733   0.290   5.492   9.285
32242SOL    HW298734   0.188   5.513   9.394
32243SOL     OW98735   1.013   3.467   7.074
32243SOL    HW198736   0.982   3.553   7.045
32243SOL    HW298737   0.935   3.423   7.108
32244SOL     OW98738   5.507  10.345  10.037
32244SOL    HW198739   5.436  10.373  10.095
32244SOL    HW298740   5.506  10.249  10.043
32245SOL     OW98741   0.589   5.857   8.720
32245SOL    HW198742   0.663   5.796   8.719
32245SOL    HW298743   0.540   5.836   8.640
32246SOL     OW98744   0.184   3.946   9.958
32246SOL    HW198745   0.271   3.918   9.929
32246SOL    HW298746   0.200   4.022  10.012
32247SOL     OW98747   7.347   4.633   2.816
32247SOL    HW198748   7.280   4.690   2.853
32247SOL    HW298749   7.300   4.553   2.793
32248SOL     OW98750   4.573   8.434   9.103
32248SOL    HW198751   4.608   8.519   9.129
32248SOL    HW298752   4.486   8.453   9.069
32249SOL     OW98753   1.871   7.586  10.481
32249SOL    HW198754   1.922   7.591  10.562
32249SOL    HW298755   1.848   7.493  10.473
32250SOL     OW98756   5.939   9.023   4.671
32250SOL    HW198757   5.849   9.029   4.640
32250SOL    HW298758   5.943   9.082   4.745
32251SOL     OW98759   6.709   3.237   0.721
32251SOL    HW198760   6.669   3.163   0.767
32251SOL    HW298761   6.789   3.201   0.683
32252SOL     OW98762   8.618   5.985   3.438
32252SOL    HW198763   8.679   6.059   3.438
32252SOL    HW298764   8.537   6.020   3.476
32253SOL     OW98765   7.492   4.937   9.819
32253SOL    HW198766   7.514   5.018   9.863
32253SOL    HW298767   7.444   4.886   9.884
32254SOL     OW98768   7.434   8.771  10.276
32254SOL    HW198769   7.449   8.681  10.246
32254SOL    HW298770   7.429   8.822  10.195
32255SOL     OW98771  10.559   9.759   7.178
32255SOL    HW198772  10.473   9.769   7.218
32255SOL    HW298773  10.551   9.802   7.093
32256SOL     OW98774   9.106   4.855  10.130
32256SOL    HW198775   9.041   4.785  10.126
32256SOL    HW298776   9.158   4.844  10.050
32257SOL     OW98777   9.825   3.242   5.646
32257SOL    HW198778   9.852   3.314   5.702
32257SOL    HW298779   9.894   3.176   5.657
32258SOL     OW98780   2.444   1.181   5.160
32258SOL    HW198781   2.359   1.175   5.116
32258SOL    HW298782   2.473   1.090   5.168
32259SOL     OW98783   1.408   0.460   8.604
32259SOL    HW198784   1.370   0.463   8.691
32259SOL    HW298785   1.454   0.376   8.601
32260SOL     OW98786   8.596  11.001   6.665
32260SOL    HW198787   8.575  10.917   6.624
32260SOL    HW298788   8.647  10.978   6.742
32261SOL     OW98789   0.341   6.767   9.747
32261SOL    HW198790   0.260   6.815   9.762
32261SOL    HW298791   0.410   6.829   9.767
32262SOL     OW98792   8.435   6.640   3.452
32262SOL    HW198793   8.403   6.565   3.503
32262SOL    HW298794   8.387   6.715   3.486
32263SOL     OW98795   9.856   5.234  11.084
32263SOL    HW198796   9.875   5.204  11.173
32263SOL    HW298797   9.796   5.308  11.095
32264SOL     OW98798   9.361   3.425   8.116
32264SOL    HW198799   9.323   3.389   8.196
32264SOL    HW298800   9.376   3.348   8.060
32265SOL     OW98801   7.165   2.844   5.396
32265SOL    HW198802   7.193   2.900   5.323
32265SOL    HW298803   7.246   2.809   5.432
32266SOL     OW98804   5.202   6.812   3.060
32266SOL    HW198805   5.209   6.862   3.141
32266SOL    HW298806   5.265   6.853   3.001
32267SOL     OW98807   8.125   4.894   0.536
32267SOL    HW198808   8.034   4.867   0.529
32267SOL    HW298809   8.149   4.920   0.447
32268SOL     OW98810   2.690   9.786   5.812
32268SOL    HW198811   2.724   9.697   5.801
32268SOL    HW298812   2.745   9.840   5.755
32269SOL     OW98813   3.500   6.236   2.510
32269SOL    HW198814   3.519   6.150   2.472
32269SOL    HW298815   3.564   6.245   2.581
32270SOL     OW98816   7.896   3.665   6.647
32270SOL    HW198817   7.826   3.726   6.670
32270SOL    HW298818   7.867   3.625   6.565
32271SOL     OW98819   5.464   0.021   6.475
32271SOL    HW198820   5.521  -0.044   6.516
32271SOL    HW298821   5.465  -0.002   6.382
32272SOL     OW98822   8.004   3.218   5.185
32272SOL    HW198823   8.031   3.304   5.153
32272SOL    HW298824   7.930   3.194   5.129
32273SOL     OW98825   5.980   2.931   8.236
32273SOL    HW198826   6.026   2.930   8.152
32273SOL    HW298827   6.044   2.966   8.298
32274SOL     OW98828   6.359   6.735   9.685
32274SOL    HW198829   6.300   6.667   9.718
32274SOL    HW298830   6.301   6.805   9.656
32275SOL     OW98831  10.103   7.119   6.361
32275SOL    HW198832  10.093   7.202   6.407
32275SOL    HW298833  10.131   7.143   6.272
32276SOL     OW98834  10.194   4.062   6.637
32276SOL    HW198835  10.170   4.047   6.728
32276SOL    HW298836  10.116   4.101   6.597
32277SOL     OW98837   0.031   3.939   0.851
32277SOL    HW198838  -0.024   3.994   0.794
32277SOL    HW298839   0.023   3.851   0.814
32278SOL     OW98840  10.485   0.946   4.387
32278SOL    HW198841  10.445   0.904   4.311
32278SOL    HW298842  10.412   0.987   4.433
32279SOL     OW98843  10.655   8.688   6.921
32279SOL    HW198844  10.634   8.704   7.013
32279SOL    HW298845  10.705   8.606   6.922
32280SOL     OW98846   8.635   9.287  10.192
32280SOL    HW198847   8.569   9.314  10.128
32280SOL    HW298848   8.718   9.314  10.153
32281SOL     OW98849   4.162   8.005   7.704
32281SOL    HW198850   4.185   7.964   7.787
32281SOL    HW298851   4.121   8.088   7.728
32282SOL     OW98852   3.425   7.505   7.926
32282SOL    HW198853   3.439   7.467   8.013
32282SOL    HW298854   3.456   7.437   7.865
32283SOL     OW98855   9.201   5.306   9.224
32283SOL    HW198856   9.287   5.305   9.266
32283SOL    HW298857   9.167   5.394   9.240
32284SOL     OW98858   1.536   9.387   2.758
32284SOL    HW198859   1.556   9.315   2.818
32284SOL    HW298860   1.615   9.396   2.704
32285SOL     OW98861   8.040   9.504  10.116
32285SOL    HW198862   8.062   9.436  10.051
32285SOL    HW298863   7.991   9.569  10.066
32286SOL     OW98864   9.847   9.767   3.250
32286SOL    HW198865   9.824   9.675   3.267
32286SOL    HW298866   9.806   9.815   3.321
32287SOL     OW98867   3.768   9.551   1.950
32287SOL    HW198868   3.799   9.626   1.900
32287SOL    HW298869   3.709   9.505   1.890
32288SOL     OW98870   8.739   6.734   7.350
32288SOL    HW198871   8.742   6.822   7.385
32288SOL    HW298872   8.740   6.677   7.427
32289SOL     OW98873   5.547   8.105   1.986
32289SOL    HW198874   5.534   8.082   2.078
32289SOL    HW298875   5.461   8.132   1.955
32290SOL     OW98876   7.736   8.596  11.010
32290SOL    HW198877   7.808   8.636  11.058
32290SOL    HW298878   7.767   8.592  10.919
32291SOL     OW98879  10.270   6.333   5.146
32291SOL    HW198880  10.279   6.362   5.236
32291SOL    HW298881  10.219   6.401   5.103
32292SOL     OW98882   2.706   7.619   7.388
32292SOL    HW198883   2.787   7.633   7.339
32292SOL    HW298884   2.729   7.638   7.479
32293SOL     OW98885   1.962   7.407   0.865
32293SOL    HW198886   2.022   7.396   0.938
32293SOL    HW298887   1.878   7.428   0.905
32294SOL     OW98888   8.596   2.861  10.932
32294SOL    HW198889   8.544   2.812  10.995
32294SOL    HW298890   8.684   2.861  10.969
32295SOL     OW98891   8.992   0.514   7.935
32295SOL    HW198892   9.005   0.558   7.851
32295SOL    HW298893   9.012   0.422   7.916
32296SOL     OW98894   9.893   6.339  10.624
32296SOL    HW198895   9.967   6.318  10.681
32296SOL    HW298896   9.837   6.396  10.676
32297SOL     OW98897   9.712   0.018   7.551
32297SOL    HW198898   9.706   0.107   7.585
32297SOL    HW298899   9.798  -0.013   7.579
32298SOL     OW98900   7.011   2.075   0.900
32298SOL    HW198901   6.974   2.056   0.986
32298SOL    HW298902   7.097   2.032   0.901
32299SOL     OW98903  10.320   7.586   7.687
32299SOL    HW198904  10.299   7.651   7.754
32299SOL    HW298905  10.270   7.614   7.610
32300SOL     OW98906   9.598   0.123   5.181
32300SOL    HW198907   9.692   0.107   5.193
32300SOL    HW298908   9.559   0.035   5.179
32301SOL     OW98909   0.654   6.545   9.170
32301SOL    HW198910   0.619   6.585   9.249
32301SOL    HW298911   0.734   6.500   9.198
32302SOL     OW98912   5.434   8.657   1.815
32302SOL    HW198913   5.431   8.740   1.768
32302SOL    HW298914   5.521   8.622   1.795
32303SOL     OW98915   6.353   5.907   5.974
32303SOL    HW198916   6.274   5.893   5.921
32303SOL    HW298917   6.418   5.939   5.911
32304SOL     OW98918   3.976   2.952  10.914
32304SOL    HW198919   3.936   3.004  10.983
32304SOL    HW298920   4.065   2.987  10.906
32305SOL     OW98921   7.908   2.628  10.707
32305SOL    HW198922   7.846   2.563  10.740
32305SOL    HW298923   7.994   2.590  10.725
32306SOL     OW98924   8.786   4.519   5.271
32306SOL    HW198925   8.828   4.502   5.186
32306SOL    HW298926   8.828   4.457   5.331
32307SOL     OW98927   7.272   3.664  10.464
32307SOL    HW198928   7.318   3.607  10.401
32307SOL    HW298929   7.193   3.615  10.487
32308SOL     OW98930   9.968   2.663   8.231
32308SOL    HW198931   9.898   2.600   8.215
32308SOL    HW298932   9.985   2.702   8.145
32309SOL     OW98933   2.672   9.344  10.695
32309SOL    HW198934   2.680   9.414  10.630
32309SOL    HW298935   2.578   9.340  10.714
32310SOL     OW98936  10.337   8.293   8.313
32310SOL    HW198937  10.262   8.352   8.306
32310SOL    HW298938  10.303   8.208   8.284
32311SOL     OW98939  10.297   4.418   6.636
32311SOL    HW198940  10.272   4.351   6.572
32311SOL    HW298941  10.242   4.493   6.615
32312SOL     OW98942   6.366  10.635   8.091
32312SOL    HW198943   6.299  10.568   8.076
32312SOL    HW298944   6.443  10.586   8.120
32313SOL     OW98945   1.544  10.335   1.817
32313SOL    HW198946   1.546  10.255   1.870
32313SOL    HW298947   1.579  10.307   1.732
32314SOL     OW98948   9.589   0.607   7.459
32314SOL    HW198949   9.594   0.691   7.413
32314SOL    HW298950   9.672   0.600   7.506
32315SOL     OW98951   8.749   0.252   7.932
32315SOL    HW198952   8.725   0.310   8.004
32315SOL    HW298953   8.760   0.166   7.973
32316SOL     OW98954  10.395   7.849   7.467
32316SOL    HW198955  10.420   7.935   7.435
32316SOL    HW298956  10.392   7.858   7.562
32317SOL     OW98957   0.498   7.435   3.483
32317SOL    HW198958   0.585   7.394   3.491
32317SOL    HW298959   0.495   7.467   3.393
32318SOL     OW98960   5.264   1.791   6.647
32318SOL    HW198961   5.186   1.786   6.592
32318SOL    HW298962   5.296   1.880   6.636
32319SOL     OW98963   2.019   4.217   8.631
32319SOL    HW198964   2.112   4.195   8.621
32319SOL    HW298965   2.019   4.308   8.658
32320SOL     OW98966   7.742   4.321   1.695
32320SOL    HW198967   7.768   4.230   1.677
32320SOL    HW298968   7.805   4.351   1.760
32321SOL     OW98969   6.291  10.427   5.913
32321SOL    HW198970   6.364  10.483   5.885
32321SOL    HW298971   6.231  10.486   5.958
32322SOL     OW98972   1.433   4.880  10.491
32322SOL    HW198973   1.439   4.975  10.502
32322SOL    HW298974   1.420   4.846  10.579
32323SOL     OW98975  10.357   8.931   2.031
32323SOL    HW198976  10.420   8.985   2.078
32323SOL    HW298977  10.291   8.993   2.000
32324SOL     OW98978   0.496   0.021   8.351
32324SOL    HW198979   0.532  -0.067   8.337
32324SOL    HW298980   0.493   0.031   8.446
32325SOL     OW98981   4.725   2.833   9.258
32325SOL    HW198982   4.773   2.808   9.337
32325SOL    HW298983   4.742   2.762   9.196
32326SOL     OW98984   0.442   0.937   4.211
32326SOL    HW198985   0.524   0.979   4.184
32326SOL    HW298986   0.425   0.872   4.142
32327SOL     OW98987   5.841   3.374   7.341
32327SOL    HW198988   5.815   3.466   7.343
32327SOL    HW298989   5.766   3.329   7.302
32328SOL     OW98990   4.146   9.199   9.648
32328SOL    HW198991   4.222   9.239   9.606
32328SOL    HW298992   4.072   9.225   9.593
32329SOL     OW98993   9.573  10.439   7.668
32329SOL    HW198994   9.490  10.454   7.623
32329SOL    HW298995   9.586  10.518   7.720
32330SOL     OW98996   5.970   4.109   6.120
32330SOL    HW198997   5.902   4.152   6.172
32330SOL    HW298998   5.992   4.030   6.169
32331SOL     OW98999   3.106   1.882   8.643
32331SOL    HW199000   3.117   1.788   8.625
32331SOL    HW299001   3.148   1.926   8.569
32332SOL     OW99002   3.784   5.751   2.262
32332SOL    HW199003   3.874   5.769   2.233
32332SOL    HW299004   3.795   5.696   2.339
32333SOL     OW99005   5.981   5.256   8.219
32333SOL    HW199006   6.015   5.241   8.307
32333SOL    HW299007   5.891   5.285   8.232
32334SOL     OW99008   5.488   6.929   3.052
32334SOL    HW199009   5.499   6.865   2.981
32334SOL    HW299010   5.505   7.014   3.011
32335SOL     OW99011   0.140   3.748   8.081
32335SOL    HW199012   0.195   3.801   8.138
32335SOL    HW299013   0.056   3.741   8.127
32336SOL     OW99014   9.623   0.860   7.375
32336SOL    HW199015   9.711   0.821   7.372
32336SOL    HW299016   9.630   0.939   7.321
32337SOL     OW99017   5.169   5.927   4.258
32337SOL    HW199018   5.255   5.935   4.217
32337SOL    HW299019   5.178   5.972   4.342
32338SOL     OW99020   9.468   5.045   1.118
32338SOL    HW199021   9.445   5.013   1.205
32338SOL    HW299022   9.384   5.059   1.074
32339SOL     OW99023   1.730   2.092   8.350
32339SOL    HW199024   1.684   2.169   8.317
32339SOL    HW299025   1.666   2.021   8.342
32340SOL     OW99026   0.737   6.058  10.002
32340SOL    HW199027   0.726   5.989  10.067
32340SOL    HW299028   0.744   6.011   9.919
32341SOL     OW99029   9.675  10.645   3.259
32341SOL    HW199030   9.714  10.726   3.226
32341SOL    HW299031   9.730  10.620   3.333
32342SOL     OW99032  10.360   2.514   8.027
32342SOL    HW199033  10.427   2.572   7.991
32342SOL    HW299034  10.382   2.506   8.119
32343SOL     OW99035   8.214   8.135   7.142
32343SOL    HW199036   8.276   8.080   7.191
32343SOL    HW299037   8.140   8.077   7.125
32344SOL     OW99038   2.146   1.839   0.469
32344SOL    HW199039   2.240   1.857   0.465
32344SOL    HW299040   2.112   1.902   0.532
32345SOL     OW99041   3.579   9.001   4.807
32345SOL    HW199042   3.659   9.051   4.789
32345SOL    HW299043   3.581   8.985   4.901
32346SOL     OW99044   7.345   5.671   6.480
32346SOL    HW199045   7.287   5.734   6.438
32346SOL    HW299046   7.432   5.692   6.445
32347SOL     OW99047   6.962   3.826   6.178
32347SOL    HW199048   6.966   3.782   6.263
32347SOL    HW299049   6.886   3.884   6.184
32348SOL     OW99050   7.053  10.663   6.371
32348SOL    HW199051   7.108  10.741   6.380
32348SOL    HW299052   6.974  10.683   6.421
32349SOL     OW99053   8.106   5.372   7.358
32349SOL    HW199054   8.023   5.367   7.406
32349SOL    HW299055   8.157   5.298   7.391
32350SOL     OW99056   5.184   5.270   9.035
32350SOL    HW199057   5.209   5.341   8.976
32350SOL    HW299058   5.141   5.206   8.978
32351SOL     OW99059   7.750   5.734   4.973
32351SOL    HW199060   7.740   5.825   4.947
32351SOL    HW299061   7.826   5.703   4.923
32352SOL     OW99062  10.835   1.355   9.126
32352SOL    HW199063  10.913   1.376   9.177
32352SOL    HW299064  10.863   1.286   9.066
32353SOL     OW99065   6.382   8.862   7.828
32353SOL    HW199066   6.410   8.936   7.775
32353SOL    HW299067   6.372   8.897   7.916
32354SOL     OW99068   8.534   4.775   8.122
32354SOL    HW199069   8.534   4.704   8.057
32354SOL    HW299070   8.627   4.788   8.143
32355SOL     OW99071   9.526   8.444   1.927
32355SOL    HW199072   9.540   8.517   1.986
32355SOL    HW299073   9.586   8.376   1.958
32356SOL     OW99074  10.652   1.509   6.741
32356SOL    HW199075  10.663   1.524   6.835
32356SOL    HW299076  10.716   1.567   6.700
32357SOL     OW99077   6.277   1.156   5.934
32357SOL    HW199078   6.290   1.175   6.026
32357SOL    HW299079   6.276   1.060   5.929
32358SOL     OW99080   8.497   9.154   5.274
32358SOL    HW199081   8.558   9.140   5.346
32358SOL    HW299082   8.536   9.106   5.200
32359SOL     OW99083   6.771   8.384   7.037
32359SOL    HW199084   6.814   8.396   7.121
32359SOL    HW299085   6.685   8.348   7.058
32360SOL     OW99086   7.990   4.325   5.621
32360SOL    HW199087   7.933   4.272   5.565
32360SOL    HW299088   8.061   4.265   5.646
32361SOL     OW99089   0.600   0.771   0.491
32361SOL    HW199090   0.679   0.759   0.543
32361SOL    HW299091   0.616   0.719   0.412
32362SOL     OW99092   2.261   3.838   0.577
32362SOL    HW199093   2.303   3.922   0.557
32362SOL    HW299094   2.312   3.774   0.527
32363SOL     OW99095   6.872   6.542   6.634
32363SOL    HW199096   6.903   6.499   6.713
32363SOL    HW299097   6.813   6.610   6.665
32364SOL     OW99098   6.806   5.774   6.697
32364SOL    HW199099   6.814   5.679   6.711
32364SOL    HW299100   6.712   5.791   6.703
32365SOL     OW99101   6.446   3.368   2.784
32365SOL    HW199102   6.397   3.313   2.723
32365SOL    HW299103   6.451   3.316   2.864
32366SOL     OW99104  10.972   7.812   5.180
32366SOL    HW199105  10.936   7.885   5.130
32366SOL    HW299106  10.901   7.785   5.238
32367SOL     OW99107   5.175   0.525   3.489
32367SOL    HW199108   5.108   0.509   3.423
32367SOL    HW299109   5.136   0.495   3.571
32368SOL     OW99110   3.152   4.602   7.248
32368SOL    HW199111   3.213   4.538   7.211
32368SOL    HW299112   3.067   4.578   7.211
32369SOL     OW99113   4.244   3.389   4.734
32369SOL    HW199114   4.157   3.350   4.738
32369SOL    HW299115   4.293   3.332   4.675
32370SOL     OW99116   8.057   3.322  10.847
32370SOL    HW199117   8.149   3.345  10.838
32370SOL    HW299118   8.025   3.379  10.916
32371SOL     OW99119   7.425   8.249   2.906
32371SOL    HW199120   7.462   8.250   2.994
32371SOL    HW299121   7.368   8.326   2.902
32372SOL     OW99122  10.162  10.159   2.782
32372SOL    HW199123  10.090  10.213   2.814
32372SOL    HW299124  10.182  10.100   2.854
32373SOL     OW99125   5.032   4.419  10.964
32373SOL    HW199126   5.050   4.399  10.872
32373SOL    HW299127   4.980   4.499  10.961
32374SOL     OW99128   4.184   5.172   9.843
32374SOL    HW199129   4.101   5.220   9.842
32374SOL    HW299130   4.160   5.083   9.868
32375SOL     OW99131   0.745   7.797   8.506
32375SOL    HW199132   0.726   7.727   8.569
32375SOL    HW299133   0.682   7.782   8.435
32376SOL     OW99134   6.538   0.583   9.060
32376SOL    HW199135   6.470   0.533   9.015
32376SOL    HW299136   6.619   0.536   9.039
32377SOL     OW99137   0.582   1.067   8.600
32377SOL    HW199138   0.512   1.092   8.660
32377SOL    HW299139   0.543   0.998   8.546
32378SOL     OW99140   0.393  11.097   8.935
32378SOL    HW199141   0.479  11.125   8.905
32378SOL    HW299142   0.388  11.126   9.026
32379SOL     OW99143   1.505   9.867   5.375
32379SOL    HW199144   1.488   9.805   5.303
32379SOL    HW299145   1.587   9.910   5.351
32380SOL     OW99146   9.981   9.409   1.303
32380SOL    HW199147  10.012   9.417   1.212
32380SOL    HW299148   9.886   9.402   1.295
32381SOL     OW99149   1.629   5.383  10.016
32381SOL    HW199150   1.620   5.435   9.936
32381SOL    HW299151   1.558   5.413  10.072
32382SOL     OW99152   8.181   9.235   8.213
32382SOL    HW199153   8.206   9.297   8.144
32382SOL    HW299154   8.088   9.251   8.227
32383SOL     OW99155   9.383   9.078   2.663
32383SOL    HW199156   9.310   9.094   2.722
32383SOL    HW299157   9.460   9.080   2.719
32384SOL     OW99158   9.420   6.770   0.981
32384SOL    HW199159   9.507   6.783   1.018
32384SOL    HW299160   9.392   6.685   1.015
32385SOL     OW99161   6.754   7.231   0.915
32385SOL    HW199162   6.696   7.306   0.906
32385SOL    HW299163   6.842   7.268   0.915
32386SOL     OW99164   9.889   9.941   8.890
32386SOL    HW199165   9.935   9.934   8.806
32386SOL    HW299166   9.914   9.861   8.937
32387SOL     OW99167   5.928   1.757   5.940
32387SOL    HW199168   5.970   1.697   6.002
32387SOL    HW299169   5.839   1.767   5.972
32388SOL     OW99170  10.019   6.862   8.364
32388SOL    HW199171   9.983   6.809   8.293
32388SOL    HW299172   9.956   6.933   8.376
32389SOL     OW99173   6.715  10.180   5.723
32389SOL    HW199174   6.797  10.223   5.700
32389SOL    HW299175   6.648  10.247   5.712
32390SOL     OW99176  11.091  11.005   3.518
32390SOL    HW199177  11.079  10.913   3.541
32390SOL    HW299178  11.039  11.017   3.438
32391SOL     OW99179   7.162   1.285   4.263
32391SOL    HW199180   7.136   1.348   4.196
32391SOL    HW299181   7.199   1.212   4.213
32392SOL     OW99182   2.627   1.600  10.152
32392SOL    HW199183   2.567   1.566  10.086
32392SOL    HW299184   2.574   1.608  10.231
32393SOL     OW99185   8.623   8.597   3.572
32393SOL    HW199186   8.629   8.610   3.477
32393SOL    HW299187   8.610   8.502   3.582
32394SOL     OW99188   4.473   5.086   0.904
32394SOL    HW199189   4.516   5.104   0.987
32394SOL    HW299190   4.504   4.998   0.880
32395SOL     OW99191   9.180   7.780   8.757
32395SOL    HW199192   9.174   7.829   8.675
32395SOL    HW299193   9.103   7.723   8.757
32396SOL     OW99194   1.401   6.904   3.557
32396SOL    HW199195   1.339   6.941   3.494
32396SOL    HW299196   1.483   6.951   3.541
32397SOL     OW99197   1.454   1.226   9.986
32397SOL    HW199198   1.375   1.219   9.932
32397SOL    HW299199   1.490   1.312   9.965
32398SOL     OW99200   8.487   6.642   9.563
32398SOL    HW199201   8.467   6.568   9.620
32398SOL    HW299202   8.570   6.676   9.596
32399SOL     OW99203   8.575   7.690   1.456
32399SOL    HW199204   8.570   7.720   1.546
32399SOL    HW299205   8.618   7.604   1.461
32400SOL     OW99206  11.027   4.388   7.000
32400SOL    HW199207  11.092   4.419   7.063
32400SOL    HW299208  11.020   4.458   6.935
32401SOL     OW99209   8.199   7.951   4.167
32401SOL    HW199210   8.174   7.899   4.243
32401SOL    HW299211   8.294   7.959   4.173
32402SOL     OW99212   6.012   4.214   9.134
32402SOL    HW199213   6.100   4.241   9.160
32402SOL    HW299214   5.962   4.295   9.129
32403SOL     OW99215   7.775   8.850   1.825
32403SOL    HW199216   7.765   8.889   1.738
32403SOL    HW299217   7.834   8.909   1.871
32404SOL     OW99218  10.866   3.924   1.000
32404SOL    HW199219  10.950   3.902   0.960
32404SOL    HW299220  10.873   3.890   1.089
32405SOL     OW99221   9.797   7.953   1.370
32405SOL    HW199222   9.865   7.943   1.436
32405SOL    HW299223   9.814   7.882   1.307
32406SOL     OW99224   6.801  10.095   8.127
32406SOL    HW199225   6.847  10.013   8.146
32406SOL    HW299226   6.758  10.118   8.209
32407SOL     OW99227   2.657   1.050   1.976
32407SOL    HW199228   2.630   0.958   1.966
32407SOL    HW299229   2.704   1.052   2.059
32408SOL     OW99230   1.278   2.548  10.092
32408SOL    HW199231   1.201   2.518  10.044
32408SOL    HW299232   1.305   2.628  10.046
32409SOL     OW99233  10.415   1.067   6.863
32409SOL    HW199234  10.430   0.998   6.927
32409SOL    HW299235  10.465   1.142   6.895
32410SOL     OW99236   7.279   3.833   6.043
32410SOL    HW199237   7.265   3.854   6.135
32410SOL    HW299238   7.322   3.910   6.007
32411SOL     OW99239  10.478   4.457   2.981
32411SOL    HW199240  10.517   4.480   3.065
32411SOL    HW299241  10.433   4.536   2.953
32412SOL     OW99242   4.637   5.962  10.341
32412SOL    HW199243   4.691   6.040  10.352
32412SOL    HW299244   4.599   5.971  10.253
32413SOL     OW99245   1.839   2.659   7.248
32413SOL    HW199246   1.762   2.622   7.204
32413SOL    HW299247   1.842   2.614   7.332
32414SOL     OW99248   4.535   6.158   3.882
32414SOL    HW199249   4.525   6.250   3.906
32414SOL    HW299250   4.618   6.154   3.834
32415SOL     OW99251   9.017   2.784   4.990
32415SOL    HW199252   8.971   2.737   5.059
32415SOL    HW299253   9.110   2.772   5.010
32416SOL     OW99254   3.218   5.886   8.999
32416SOL    HW199255   3.224   5.963   9.055
32416SOL    HW299256   3.146   5.905   8.939
32417SOL     OW99257   4.031   9.397   1.438
32417SOL    HW199258   4.109   9.376   1.387
32417SOL    HW299259   4.062   9.400   1.528
32418SOL     OW99260  10.682   3.902   3.136
32418SOL    HW199261  10.667   3.918   3.043
32418SOL    HW299262  10.610   3.947   3.180
32419SOL     OW99263  10.603   9.241   7.889
32419SOL    HW199264  10.633   9.285   7.809
32419SOL    HW299265  10.605   9.148   7.866
32420SOL     OW99266   7.952   2.509   5.996
32420SOL    HW199267   7.897   2.565   5.941
32420SOL    HW299268   7.891   2.468   6.057
32421SOL     OW99269   5.945   2.095   1.657
32421SOL    HW199270   5.962   2.175   1.707
32421SOL    HW299271   5.923   2.029   1.723
32422SOL     OW99272   1.526   5.645   3.551
32422SOL    HW199273   1.468   5.654   3.475
32422SOL    HW299274   1.614   5.646   3.514
32423SOL     OW99275   8.484   8.504   7.280
32423SOL    HW199276   8.554   8.458   7.327
32423SOL    HW299277   8.471   8.452   7.200
32424SOL     OW99278   7.970   1.023   5.848
32424SOL    HW199279   7.965   0.941   5.799
32424SOL    HW299280   7.880   1.042   5.873
32425SOL     OW99281   4.820   7.740  10.149
32425SOL    HW199282   4.914   7.721  10.150
32425SOL    HW299283   4.783   7.681  10.215
32426SOL     OW99284   6.866   6.498   2.181
32426SOL    HW199285   6.800   6.565   2.162
32426SOL    HW299286   6.871   6.446   2.100
32427SOL     OW99287   0.152   6.279   0.351
32427SOL    HW199288   0.194   6.347   0.299
32427SOL    HW299289   0.177   6.298   0.441
32428SOL     OW99290   4.682   5.546   9.606
32428SOL    HW199291   4.620   5.478   9.578
32428SOL    HW299292   4.710   5.588   9.524
32429SOL     OW99293  10.082   1.313   8.929
32429SOL    HW199294   9.988   1.320   8.942
32429SOL    HW299295  10.110   1.246   8.991
32430SOL     OW99296   5.947   7.999   6.982
32430SOL    HW199297   5.893   7.939   6.931
32430SOL    HW299298   5.884   8.052   7.031
32431SOL     OW99299   4.196   2.228   7.130
32431SOL    HW199300   4.186   2.163   7.059
32431SOL    HW299301   4.234   2.304   7.087
32432SOL     OW99302   4.803   3.215   7.905
32432SOL    HW199303   4.771   3.267   7.978
32432SOL    HW299304   4.807   3.125   7.939
32433SOL     OW99305   7.511  10.262   5.292
32433SOL    HW199306   7.423  10.234   5.267
32433SOL    HW299307   7.551  10.291   5.210
32434SOL     OW99308   4.791   1.959   9.308
32434SOL    HW199309   4.769   1.866   9.312
32434SOL    HW299310   4.796   1.986   9.399
32435SOL     OW99311   4.338   9.237   3.857
32435SOL    HW199312   4.291   9.159   3.887
32435SOL    HW299313   4.416   9.240   3.912
32436SOL     OW99314   7.090   4.513  10.423
32436SOL    HW199315   7.107   4.558  10.340
32436SOL    HW299316   7.172   4.467  10.442
32437SOL     OW99317   1.996   0.147   8.460
32437SOL    HW199318   1.959   0.222   8.507
32437SOL    HW299319   1.923   0.112   8.409
32438SOL     OW99320   4.454  10.359   6.272
32438SOL    HW199321   4.454  10.415   6.194
32438SOL    HW299322   4.510  10.285   6.248
32439SOL     OW99323   9.572   3.607   4.570
32439SOL    HW199324   9.481   3.583   4.553
32439SOL    HW299325   9.573   3.702   4.568
32440SOL     OW99326   9.954   7.161   2.891
32440SOL    HW199327   9.950   7.253   2.915
32440SOL    HW299328   9.954   7.161   2.795
32441SOL     OW99329   9.715   5.256   7.743
32441SOL    HW199330   9.773   5.310   7.797
32441SOL    HW299331   9.630   5.261   7.787
32442SOL     OW99332   4.586   6.415   3.950
32442SOL    HW199333   4.671   6.402   3.992
32442SOL    HW299334   4.591   6.503   3.913
32443SOL     OW99335   5.055   2.174   8.950
32443SOL    HW199336   5.119   2.181   8.878
32443SOL    HW299337   5.039   2.080   8.957
32444SOL     OW99338   1.330   2.148   8.398
32444SOL    HW199339   1.316   2.139   8.492
32444SOL    HW299340   1.385   2.226   8.389
32445SOL     OW99341   5.390   3.821  10.982
32445SOL    HW199342   5.325   3.846  11.048
32445SOL    HW299343   5.339   3.803  10.903
32446SOL     OW99344   6.326   3.462   1.539
32446SOL    HW199345   6.256   3.421   1.488
32446SOL    HW299346   6.297   3.552   1.552
32447SOL     OW99347   2.283   3.485   6.751
32447SOL    HW199348   2.243   3.563   6.712
32447SOL    HW299349   2.236   3.411   6.711
32448SOL     OW99350   9.416   1.369  10.974
32448SOL    HW199351   9.389   1.449  10.929
32448SOL    HW299352   9.360   1.365  11.051
32449SOL     OW99353   0.911   2.526  10.485
32449SOL    HW199354   0.960   2.597  10.443
32449SOL    HW299355   0.943   2.524  10.575
32450SOL     OW99356   4.056   6.470   9.246
32450SOL    HW199357   4.026   6.560   9.236
32450SOL    HW299358   4.149   6.473   9.223
32451SOL     OW99359   5.871   2.792   2.410
32451SOL    HW199360   5.810   2.844   2.461
32451SOL    HW299361   5.816   2.728   2.365
32452SOL     OW99362   1.916   9.683   1.429
32452SOL    HW199363   1.991   9.742   1.422
32452SOL    HW299364   1.898   9.677   1.522
32453SOL     OW99365   9.076   6.933   8.633
32453SOL    HW199366   9.056   6.908   8.723
32453SOL    HW299367   9.160   6.891   8.615
32454SOL     OW99368   6.476   8.418  10.133
32454SOL    HW199369   6.522   8.378  10.059
32454SOL    HW299370   6.456   8.507  10.104
32455SOL     OW99371   1.763   0.447   8.329
32455SOL    HW199372   1.728   0.523   8.282
32455SOL    HW299373   1.844   0.426   8.283
32456SOL     OW99374   6.610  10.915   7.370
32456SOL    HW199375   6.576  10.975   7.436
32456SOL    HW299376   6.705  10.913   7.385
32457SOL     OW99377  10.398   6.765   7.010
32457SOL    HW199378  10.318   6.782   6.960
32457SOL    HW299379  10.419   6.848   7.052
32458SOL     OW99380   4.663   8.257   3.739
32458SOL    HW199381   4.607   8.283   3.665
32458SOL    HW299382   4.725   8.194   3.701
32459SOL     OW99383  10.201   0.982  10.221
32459SOL    HW199384  10.228   0.894  10.193
32459SOL    HW299385  10.109   0.972  10.244
32460SOL     OW99386  10.862   8.145   5.614
32460SOL    HW199387  10.792   8.208   5.630
32460SOL    HW299388  10.940   8.198   5.599
32461SOL     OW99389   3.682   3.081   6.396
32461SOL    HW199390   3.651   3.113   6.480
32461SOL    HW299391   3.730   3.001   6.417
32462SOL     OW99392   2.244   8.183   9.088
32462SOL    HW199393   2.315   8.129   9.053
32462SOL    HW299394   2.259   8.184   9.182
32463SOL     OW99395   7.539   4.922   0.511
32463SOL    HW199396   7.581   4.903   0.595
32463SOL    HW299397   7.596   4.987   0.470
32464SOL     OW99398   5.092   9.661   6.530
32464SOL    HW199399   5.014   9.657   6.585
32464SOL    HW299400   5.059   9.647   6.441
32465SOL     OW99401   7.463   1.557   7.188
32465SOL    HW199402   7.409   1.561   7.109
32465SOL    HW299403   7.453   1.467   7.219
32466SOL     OW99404   2.236  10.019   9.812
32466SOL    HW199405   2.146   9.992   9.796
32466SOL    HW299406   2.256   9.987   9.900
32467SOL     OW99407   0.962   3.026  10.193
32467SOL    HW199408   1.028   3.084  10.154
32467SOL    HW299409   0.927   2.977  10.118
32468SOL     OW99410   2.322   2.317   9.100
32468SOL    HW199411   2.236   2.358   9.110
32468SOL    HW299412   2.326   2.252   9.170
32469SOL     OW99413   8.538   1.904   5.127
32469SOL    HW199414   8.558   1.971   5.062
32469SOL    HW299415   8.610   1.909   5.190
32470SOL     OW99416   4.742   1.369   1.647
32470SOL    HW199417   4.790   1.451   1.651
32470SOL    HW299418   4.752   1.331   1.734
32471SOL     OW99419   4.091   3.883   3.513
32471SOL    HW199420   4.175   3.872   3.558
32471SOL    HW299421   4.031   3.824   3.559
32472SOL     OW99422   6.888   2.295   6.543
32472SOL    HW199423   6.916   2.333   6.626
32472SOL    HW299424   6.793   2.306   6.542
32473SOL     OW99425  11.089   5.776   4.460
32473SOL    HW199426  10.995   5.792   4.449
32473SOL    HW299427  11.101   5.766   4.554
32474SOL     OW99428   7.904   5.854   1.571
32474SOL    HW199429   7.976   5.910   1.541
32474SOL    HW299430   7.831   5.914   1.586
32475SOL     OW99431   7.473   1.613   9.295
32475SOL    HW199432   7.450   1.580   9.382
32475SOL    HW299433   7.405   1.578   9.237
32476SOL     OW99434   4.485   0.452   0.750
32476SOL    HW199435   4.492   0.378   0.689
32476SOL    HW299436   4.440   0.520   0.700
32477SOL     OW99437   7.690   4.366   0.933
32477SOL    HW199438   7.767   4.322   0.969
32477SOL    HW299439   7.709   4.372   0.839
32478SOL     OW99440   0.290   1.334   9.899
32478SOL    HW199441   0.267   1.403   9.960
32478SOL    HW299442   0.301   1.256   9.953
32479SOL     OW99443   6.810   8.699  10.791
32479SOL    HW199444   6.817   8.794  10.788
32479SOL    HW299445   6.799   8.673  10.699
32480SOL     OW99446   3.759   6.586   8.792
32480SOL    HW199447   3.751   6.501   8.747
32480SOL    HW299448   3.818   6.569   8.865
32481SOL     OW99449   4.890   5.683   4.248
32481SOL    HW199450   4.835   5.691   4.326
32481SOL    HW299451   4.978   5.669   4.282
32482SOL     OW99452   2.597   4.909   0.636
32482SOL    HW199453   2.510   4.899   0.674
32482SOL    HW299454   2.651   4.941   0.708
32483SOL     OW99455   1.181   0.871   6.152
32483SOL    HW199456   1.177   0.921   6.071
32483SOL    HW299457   1.153   0.783   6.126
32484SOL     OW99458   5.209   1.125   9.792
32484SOL    HW199459   5.122   1.151   9.820
32484SOL    HW299460   5.240   1.065   9.860
32485SOL     OW99461   8.063   9.484   4.386
32485SOL    HW199462   8.082   9.553   4.322
32485SOL    HW299463   7.970   9.465   4.374
32486SOL     OW99464   0.890   1.404  10.400
32486SOL    HW199465   0.838   1.336  10.442
32486SOL    HW299466   0.921   1.459  10.472
32487SOL     OW99467   7.900   7.079   6.938
32487SOL    HW199468   7.855   7.026   7.003
32487SOL    HW299469   7.960   7.134   6.988
32488SOL     OW99470   9.986  10.347  10.343
32488SOL    HW199471   9.913  10.322  10.399
32488SOL    HW299472   9.945  10.388  10.266
32489SOL     OW99473   3.873   3.635   3.360
32489SOL    HW199474   3.903   3.603   3.445
32489SOL    HW299475   3.953   3.668   3.317
32490SOL     OW99476  10.430   6.392   0.588
32490SOL    HW199477  10.501   6.345   0.632
32490SOL    HW299478  10.365   6.408   0.656
32491SOL     OW99479   5.441   6.868   9.083
32491SOL    HW199480   5.514   6.911   9.038
32491SOL    HW299481   5.402   6.811   9.016
32492SOL     OW99482   3.726   5.782   1.306
32492SOL    HW199483   3.666   5.830   1.363
32492SOL    HW299484   3.677   5.704   1.279
32493SOL     OW99485   9.987   8.762   2.321
32493SOL    HW199486  10.046   8.790   2.251
32493SOL    HW299487  10.040   8.701   2.373
32494SOL     OW99488   8.477   0.969   3.996
32494SOL    HW199489   8.391   0.959   3.956
32494SOL    HW299490   8.461   0.959   4.090
32495SOL     OW99491   9.428   9.308   4.046
32495SOL    HW199492   9.454   9.225   4.005
32495SOL    HW299493   9.333   9.302   4.053
32496SOL     OW99494   2.373  10.629   1.154
32496SOL    HW199495   2.457  10.663   1.183
32496SOL    HW299496   2.308  10.687   1.194
32497SOL     OW99497   5.945   2.646   7.947
32497SOL    HW199498   5.917   2.694   8.024
32497SOL    HW299499   6.013   2.701   7.908
32498SOL     OW99500   9.469   2.023   9.662
32498SOL    HW199501   9.468   1.928   9.673
32498SOL    HW299502   9.383   2.044   9.626
32499SOL     OW99503   5.525   4.539   8.587
32499SOL    HW199504   5.577   4.575   8.515
32499SOL    HW299505   5.479   4.614   8.624
32500SOL     OW99506   7.362   3.649   0.457
32500SOL    HW199507   7.451   3.683   0.469
32500SOL    HW299508   7.364   3.562   0.497
32501SOL     OW99509   9.211   7.014   0.263
32501SOL    HW199510   9.161   6.975   0.335
32501SOL    HW299511   9.300   7.021   0.296
32502SOL     OW99512   9.082   0.251  10.954
32502SOL    HW199513   9.119   0.329  10.914
32502SOL    HW299514   8.998   0.279  10.989
32503SOL     OW99515   3.912   0.811   6.046
32503SOL    HW199516   3.994   0.800   5.998
32503SOL    HW299517   3.899   0.727   6.090
32504SOL     OW99518   8.894   9.189   0.342
32504SOL    HW199519   8.935   9.275   0.341
32504SOL    HW299520   8.800   9.207   0.346
32505SOL     OW99521   4.698   1.118   0.491
32505SOL    HW199522   4.605   1.102   0.473
32505SOL    HW299523   4.701   1.205   0.530
32506SOL     OW99524   0.254   4.370   2.560
32506SOL    HW199525   0.203   4.450   2.554
32506SOL    HW299526   0.218   4.314   2.490
32507SOL     OW99527   4.927   0.657   6.551
32507SOL    HW199528   4.840   0.665   6.511
32507SOL    HW299529   4.988   0.673   6.478
32508SOL     OW99530   4.794   6.269   8.243
32508SOL    HW199531   4.840   6.189   8.268
32508SOL    HW299532   4.701   6.247   8.253
32509SOL     OW99533  10.069   6.181   2.805
32509SOL    HW199534  10.081   6.087   2.818
32509SOL    HW299535  10.044   6.189   2.713
32510SOL     OW99536  10.138   6.082   5.091
32510SOL    HW199537  10.201   6.144   5.127
32510SOL    HW299538  10.177   5.996   5.106
32511SOL     OW99539   5.406   7.672   0.114
32511SOL    HW199540   5.421   7.745   0.055
32511SOL    HW299541   5.415   7.594   0.059
32512SOL     OW99542   6.563   1.038  10.305
32512SOL    HW199543   6.583   1.067  10.216
32512SOL    HW299544   6.648   1.014  10.342
32513SOL     OW99545  10.965   7.333  10.669
32513SOL    HW199546  10.997   7.326  10.759
32513SOL    HW299547  10.947   7.242  10.643
32514SOL     OW99548   8.875   2.734   4.209
32514SOL    HW199549   8.890   2.802   4.144
32514SOL    HW299550   8.887   2.777   4.293
32515SOL     OW99551   1.432   1.560   4.650
32515SOL    HW199552   1.356   1.608   4.682
32515SOL    HW299553   1.398   1.473   4.629
32516SOL     OW99554   7.212   6.039   9.596
32516SOL    HW199555   7.275   5.986   9.545
32516SOL    HW299556   7.256   6.055   9.679
32517SOL     OW99557  10.101  10.693  10.493
32517SOL    HW199558  10.170  10.636  10.459
32517SOL    HW299559  10.078  10.656  10.578
32518SOL     OW99560   1.609   5.565  10.901
32518SOL    HW199561   1.549   5.558  10.975
32518SOL    HW299562   1.676   5.627  10.930
32519SOL     OW99563   5.103  10.026  10.267
32519SOL    HW199564   5.046   9.974  10.210
32519SOL    HW299565   5.189   9.984  10.259
32520SOL     OW99566   5.758   8.122   8.462
32520SOL    HW199567   5.776   8.028   8.471
32520SOL    HW299568   5.833   8.164   8.504
32521SOL     OW99569  10.505   2.248  10.936
32521SOL    HW199570  10.502   2.252  10.840
32521SOL    HW299571  10.510   2.154  10.955
32522SOL     OW99572   1.945   1.535   9.048
32522SOL    HW199573   2.035   1.513   9.024
32522SOL    HW299574   1.906   1.451   9.073
32523SOL     OW99575   4.911   1.178   5.460
32523SOL    HW199576   4.970   1.149   5.529
32523SOL    HW299577   4.968   1.223   5.397
32524SOL     OW99578   5.768   3.429   8.454
32524SOL    HW199579   5.830   3.467   8.391
32524SOL    HW299580   5.698   3.494   8.462
32525SOL     OW99581   8.783   1.629   3.061
32525SOL    HW199582   8.821   1.641   3.148
32525SOL    HW299583   8.793   1.535   3.043
32526SOL     OW99584   9.270   8.007   9.645
32526SOL    HW199585   9.302   8.045   9.563
32526SOL    HW299586   9.211   7.937   9.617
32527SOL     OW99587   8.207   6.620   8.601
32527SOL    HW199588   8.148   6.592   8.530
32527SOL    HW299589   8.281   6.559   8.595
32528SOL     OW99590   5.960   9.405   6.622
32528SOL    HW199591   5.950   9.469   6.551
32528SOL    HW299592   5.960   9.457   6.702
32529SOL     OW99593   7.657   6.392   8.400
32529SOL    HW199594   7.678   6.355   8.486
32529SOL    HW299595   7.584   6.451   8.416
32530SOL     OW99596   2.862   5.574   8.627
32530SOL    HW199597   2.924   5.554   8.697
32530SOL    HW299598   2.835   5.664   8.644
32531SOL     OW99599   2.460   5.342   3.535
32531SOL    HW199600   2.553   5.353   3.553
32531SOL    HW299601   2.433   5.270   3.592
32532SOL     OW99602  10.810   0.123   4.483
32532SOL    HW199603  10.732   0.134   4.536
32532SOL    HW299604  10.794   0.176   4.405
32533SOL     OW99605   6.791   6.364   0.400
32533SOL    HW199606   6.747   6.444   0.429
32533SOL    HW299607   6.854   6.345   0.469
32534SOL     OW99608   6.403  10.171   3.486
32534SOL    HW199609   6.343  10.196   3.415
32534SOL    HW299610   6.356  10.103   3.534
32535SOL     OW99611   2.370   4.754   1.636
32535SOL    HW199612   2.304   4.718   1.694
32535SOL    HW299613   2.335   4.838   1.609
32536SOL     OW99614   0.434   7.492   8.215
32536SOL    HW199615   0.421   7.559   8.148
32536SOL    HW299616   0.383   7.417   8.184
32537SOL     OW99617   7.475  10.481   7.535
32537SOL    HW199618   7.421  10.544   7.583
32537SOL    HW299619   7.548  10.533   7.500
32538SOL     OW99620   9.026   5.374   6.943
32538SOL    HW199621   9.013   5.404   7.033
32538SOL    HW299622   9.012   5.452   6.889
32539SOL     OW99623   1.407   1.183   7.853
32539SOL    HW199624   1.341   1.195   7.921
32539SOL    HW299625   1.368   1.221   7.774
32540SOL     OW99626   4.859   0.860   9.085
32540SOL    HW199627   4.908   0.933   9.122
32540SOL    HW299628   4.925   0.792   9.071
32541SOL     OW99629   8.534   0.695   8.564
32541SOL    HW199630   8.497   0.750   8.495
32541SOL    HW299631   8.498   0.730   8.645
32542SOL     OW99632   3.242   2.944   4.676
32542SOL    HW199633   3.194   2.883   4.619
32542SOL    HW299634   3.174   2.994   4.721
32543SOL     OW99635   9.850   3.467   4.039
32543SOL    HW199636   9.909   3.392   4.031
32543SOL    HW299637   9.853   3.490   4.132
32544SOL     OW99638   7.309  11.082   5.376
32544SOL    HW199639   7.386  11.084   5.319
32544SOL    HW299640   7.318  11.159   5.432
32545SOL     OW99641  11.034   8.458   0.642
32545SOL    HW199642  11.110   8.437   0.696
32545SOL    HW299643  11.063   8.440   0.552
32546SOL     OW99644   0.450   5.974   5.506
32546SOL    HW199645   0.515   6.032   5.545
32546SOL    HW299646   0.421   5.917   5.577
32547SOL     OW99647   4.487   3.008  10.133
32547SOL    HW199648   4.525   2.975  10.051
32547SOL    HW299649   4.417   2.946  10.153
32548SOL     OW99650   8.706   5.511   6.472
32548SOL    HW199651   8.797   5.485   6.487
32548SOL    HW299652   8.672   5.532   6.559
32549SOL     OW99653   6.167   1.567   2.429
32549SOL    HW199654   6.237   1.593   2.369
32549SOL    HW299655   6.187   1.612   2.511
32550SOL     OW99656   7.421   0.321   2.547
32550SOL    HW199657   7.382   0.408   2.540
32550SOL    HW299658   7.347   0.262   2.560
32551SOL     OW99659   4.824   7.923   9.511
32551SOL    HW199660   4.809   7.944   9.418
32551SOL    HW299661   4.843   8.007   9.552
32552SOL     OW99662   0.340   1.400   4.804
32552SOL    HW199663   0.385   1.411   4.887
32552SOL    HW299664   0.263   1.347   4.825
32553SOL     OW99665   2.346   7.665   7.214
32553SOL    HW199666   2.402   7.597   7.251
32553SOL    HW299667   2.407   7.732   7.183
32554SOL     OW99668   0.914   6.651  10.036
32554SOL    HW199669   0.914   6.698  10.119
32554SOL    HW299670   0.925   6.719   9.969
32555SOL     OW99671   4.337   8.952   8.770
32555SOL    HW199672   4.264   8.923   8.825
32555SOL    HW299673   4.355   9.041   8.798
32556SOL     OW99674   6.437   2.911   0.452
32556SOL    HW199675   6.407   2.840   0.395
32556SOL    HW299676   6.392   2.989   0.419
32557SOL     OW99677   0.431   4.144   2.573
32557SOL    HW199678   0.407   4.234   2.592
32557SOL    HW299679   0.354   4.092   2.598
32558SOL     OW99680   7.213   5.944   0.619
32558SOL    HW199681   7.258   6.014   0.573
32558SOL    HW299682   7.215   5.870   0.558
32559SOL     OW99683  10.378   0.857   0.094
32559SOL    HW199684  10.325   0.935   0.078
32559SOL    HW299685  10.401   0.824   0.007
32560SOL     OW99686   5.803   7.614   5.634
32560SOL    HW199687   5.833   7.528   5.602
32560SOL    HW299688   5.879   7.671   5.623
32561SOL     OW99689   9.435   4.666  10.732
32561SOL    HW199690   9.513   4.642  10.782
32561SOL    HW299691   9.423   4.759  10.748
32562SOL     OW99692   5.198   4.259   7.913
32562SOL    HW199693   5.171   4.345   7.944
32562SOL    HW299694   5.155   4.249   7.828
32563SOL     OW99695   9.427   3.743   4.922
32563SOL    HW199696   9.428   3.838   4.910
32563SOL    HW299697   9.350   3.726   4.976
32564SOL     OW99698   9.698   5.154   1.177
32564SOL    HW199699   9.609   5.122   1.159
32564SOL    HW299700   9.689   5.212   1.252
32565SOL     OW99701   9.719   3.975   4.295
32565SOL    HW199702   9.779   4.043   4.326
32565SOL    HW299703   9.771   3.894   4.297
32566SOL     OW99704   9.927   6.466   9.602
32566SOL    HW199705   9.916   6.503   9.689
32566SOL    HW299706  10.022   6.463   9.589
32567SOL     OW99707   6.957   3.589   0.850
32567SOL    HW199708   7.003   3.524   0.796
32567SOL    HW299709   6.962   3.670   0.800
32568SOL     OW99710   4.265   7.705  10.675
32568SOL    HW199711   4.268   7.626  10.620
32568SOL    HW299712   4.314   7.770  10.625
32569SOL     OW99713   4.379   3.627   2.630
32569SOL    HW199714   4.302   3.574   2.609
32569SOL    HW299715   4.343   3.709   2.662
32570SOL     OW99716   9.187   6.020   7.010
32570SOL    HW199717   9.113   5.990   6.957
32570SOL    HW299718   9.190   5.959   7.084
32571SOL     OW99719   9.999   5.605   7.288
32571SOL    HW199720  10.033   5.683   7.244
32571SOL    HW299721   9.912   5.591   7.249
32572SOL     OW99722   9.996   7.333   3.572
32572SOL    HW199723  10.074   7.380   3.600
32572SOL    HW299724  10.016   7.305   3.482
32573SOL     OW99725   6.327   3.137   8.658
32573SOL    HW199726   6.422   3.131   8.650
32573SOL    HW299727   6.310   3.229   8.675
32574SOL     OW99728   8.721   5.144   4.532
32574SOL    HW199729   8.728   5.212   4.599
32574SOL    HW299730   8.640   5.098   4.553
32575SOL     OW99731   4.872   3.723   2.884
32575SOL    HW199732   4.824   3.640   2.893
32575SOL    HW299733   4.963   3.699   2.900
32576SOL     OW99734   7.314   7.778   0.584
32576SOL    HW199735   7.315   7.829   0.503
32576SOL    HW299736   7.239   7.811   0.633
32577SOL     OW99737   6.316   5.287   1.459
32577SOL    HW199738   6.298   5.214   1.400
32577SOL    HW299739   6.233   5.304   1.502
32578SOL     OW99740   4.636   1.041  10.210
32578SOL    HW199741   4.622   1.124  10.254
32578SOL    HW299742   4.729   1.041  10.188
32579SOL     OW99743   8.653   2.577   7.967
32579SOL    HW199744   8.646   2.572   7.871
32579SOL    HW299745   8.582   2.521   7.999
32580SOL     OW99746   6.351   2.468   0.070
32580SOL    HW199747   6.280   2.452   0.132
32580SOL    HW299748   6.423   2.413   0.101
32581SOL     OW99749   7.152   8.967   2.060
32581SOL    HW199750   7.197   8.941   2.141
32581SOL    HW299751   7.189   9.053   2.038
32582SOL     OW99752   2.549   6.454   9.415
32582SOL    HW199753   2.572   6.364   9.439
32582SOL    HW299754   2.560   6.504   9.496
32583SOL     OW99755   0.314   5.862   1.613
32583SOL    HW199756   0.369   5.793   1.576
32583SOL    HW299757   0.362   5.892   1.689
32584SOL     OW99758   7.537   6.553   0.328
32584SOL    HW199759   7.618   6.604   0.325
32584SOL    HW299760   7.467   6.618   0.326
32585SOL     OW99761   5.325   6.292   8.394
32585SOL    HW199762   5.259   6.263   8.457
32585SOL    HW299763   5.319   6.229   8.322
32586SOL     OW99764   7.570   6.308   2.116
32586SOL    HW199765   7.483   6.339   2.091
32586SOL    HW299766   7.570   6.215   2.093
32587SOL     OW99767   8.733   3.821   1.865
32587SOL    HW199768   8.770   3.822   1.953
32587SOL    HW299769   8.774   3.745   1.823
32588SOL     OW99770   6.465   2.753  10.045
32588SOL    HW199771   6.373   2.765  10.023
32588SOL    HW299772   6.508   2.832  10.012
32589SOL     OW99773   3.720   8.668   2.151
32589SOL    HW199774   3.785   8.625   2.095
32589SOL    HW299775   3.772   8.713   2.217
32590SOL     OW99776   7.861   9.088   5.313
32590SOL    HW199777   7.786   9.040   5.277
32590SOL    HW299778   7.822   9.149   5.376
32591SOL     OW99779   9.524   9.536  10.147
32591SOL    HW199780   9.514   9.550  10.241
32591SOL    HW299781   9.589   9.465  10.140
32592SOL     OW99782   3.290   6.226   6.409
32592SOL    HW199783   3.340   6.152   6.444
32592SOL    HW299784   3.242   6.260   6.484
32593SOL     OW99785   3.958   4.029  10.093
32593SOL    HW199786   4.026   4.096  10.087
32593SOL    HW299787   4.006   3.947  10.109
32594SOL     OW99788   4.583   9.159   9.479
32594SOL    HW199789   4.609   9.222   9.546
32594SOL    HW299790   4.545   9.086   9.527
32595SOL     OW99791   2.220   2.473   9.873
32595SOL    HW199792   2.240   2.409   9.805
32595SOL    HW299793   2.304   2.488   9.917
32596SOL     OW99794   5.905   2.030   1.248
32596SOL    HW199795   5.875   2.111   1.288
32596SOL    HW299796   5.961   1.989   1.314
32597SOL     OW99797  10.129   5.579   1.578
32597SOL    HW199798  10.072   5.656   1.573
32597SOL    HW299799  10.150   5.571   1.671
32598SOL     OW99800   8.447   1.443   5.395
32598SOL    HW199801   8.400   1.362   5.376
32598SOL    HW299802   8.531   1.433   5.350
32599SOL     OW99803   0.226   1.506   6.591
32599SOL    HW199804   0.235   1.579   6.652
32599SOL    HW299805   0.144   1.463   6.616
32600SOL     OW99806   1.500   4.773   5.023
32600SOL    HW199807   1.550   4.798   4.945
32600SOL    HW299808   1.566   4.740   5.084
32601SOL     OW99809   8.279   2.487   7.742
32601SOL    HW199810   8.232   2.505   7.823
32601SOL    HW299811   8.210   2.462   7.680
32602SOL     OW99812   9.657   6.694   2.057
32602SOL    HW199813   9.718   6.650   2.116
32602SOL    HW299814   9.618   6.623   2.006
32603SOL     OW99815   6.609   7.455   8.964
32603SOL    HW199816   6.643   7.417   8.883
32603SOL    HW299817   6.686   7.488   9.009
32604SOL     OW99818   0.544   7.988   7.632
32604SOL    HW199819   0.626   7.947   7.606
32604SOL    HW299820   0.536   8.064   7.574
32605SOL     OW99821   3.250   9.914   5.912
32605SOL    HW199822   3.268   9.834   5.861
32605SOL    HW299823   3.258   9.886   6.003
32606SOL     OW99824   1.723   0.439   9.962
32606SOL    HW199825   1.742   0.514   9.905
32606SOL    HW299826   1.764   0.364   9.918
32607SOL     OW99827   8.673   3.666   3.783
32607SOL    HW199828   8.708   3.730   3.721
32607SOL    HW299829   8.741   3.658   3.850
32608SOL     OW99830   5.644   8.613  10.407
32608SOL    HW199831   5.613   8.643  10.492
32608SOL    HW299832   5.627   8.686  10.348
32609SOL     OW99833   9.981   3.367  10.408
32609SOL    HW199834   9.961   3.290  10.461
32609SOL    HW299835   9.913   3.368  10.340
32610SOL     OW99836   1.859   7.668   8.465
32610SOL    HW199837   1.945   7.691   8.431
32610SOL    HW299838   1.874   7.587   8.514
32611SOL     OW99839   0.373   0.143   9.493
32611SOL    HW199840   0.361   0.103   9.579
32611SOL    HW299841   0.438   0.087   9.450
32612SOL     OW99842   4.650   3.412   1.109
32612SOL    HW199843   4.652   3.327   1.065
32612SOL    HW299844   4.730   3.456   1.080
32613SOL     OW99845   0.010   6.644   9.684
32613SOL    HW199846   0.024   6.585   9.609
32613SOL    HW299847  -0.067   6.695   9.659
32614SOL     OW99848   8.712   9.746   5.079
32614SOL    HW199849   8.788   9.757   5.022
32614SOL    HW299850   8.740   9.782   5.163
32615SOL     OW99851   9.567   6.474   4.919
32615SOL    HW199852   9.547   6.501   4.829
32615SOL    HW299853   9.621   6.395   4.908
32616SOL     OW99854  10.865   3.601   1.021
32616SOL    HW199855  10.896   3.636   1.104
32616SOL    HW299856  10.910   3.517   1.012
32617SOL     OW99857   4.649   0.158   4.636
32617SOL    HW199858   4.728   0.158   4.690
32617SOL    HW299859   4.578   0.141   4.697
32618SOL     OW99860   7.074   2.106  10.069
32618SOL    HW199861   7.112   2.138   9.987
32618SOL    HW299862   7.004   2.047  10.041
32619SOL     OW99863   8.173   4.945   6.719
32619SOL    HW199864   8.100   4.955   6.657
32619SOL    HW299865   8.251   4.962   6.666
32620SOL     OW99866   3.331   4.581   4.537
32620SOL    HW199867   3.364   4.641   4.470
32620SOL    HW299868   3.256   4.626   4.576
32621SOL     OW99869  10.879   3.900   4.958
32621SOL    HW199870  10.806   3.838   4.949
32621SOL    HW299871  10.911   3.912   4.868
32622SOL     OW99872   9.222   7.294   6.409
32622SOL    HW199873   9.235   7.291   6.314
32622SOL    HW299874   9.280   7.364   6.439
32623SOL     OW99875  10.545   3.989   5.554
32623SOL    HW199876  10.548   4.083   5.541
32623SOL    HW299877  10.636   3.964   5.568
32624SOL     OW99878   8.369   0.949   0.920
32624SOL    HW199879   8.424   0.925   0.994
32624SOL    HW299880   8.313   0.872   0.906
32625SOL     OW99881   1.063   5.051   1.411
32625SOL    HW199882   1.034   5.090   1.493
32625SOL    HW299883   0.986   5.004   1.378
32626SOL     OW99884   2.259   9.305   8.045
32626SOL    HW199885   2.201   9.273   8.114
32626SOL    HW299886   2.347   9.299   8.083
32627SOL     OW99887   8.050   8.766  10.183
32627SOL    HW199888   8.004   8.683  10.199
32627SOL    HW299889   8.098   8.750  10.101
32628SOL     OW99890   0.095   7.561   8.802
32628SOL    HW199891   0.034   7.506   8.752
32628SOL    HW299892   0.042   7.636   8.828
32629SOL     OW99893   3.964   4.193   2.515
32629SOL    HW199894   3.886   4.249   2.514
32629SOL    HW299895   3.965   4.155   2.603
32630SOL     OW99896   8.758   4.493   2.635
32630SOL    HW199897   8.663   4.489   2.625
32630SOL    HW299898   8.784   4.573   2.589
32631SOL     OW99899   7.354   0.279   0.408
32631SOL    HW199900   7.441   0.301   0.441
32631SOL    HW299901   7.327   0.356   0.359
32632SOL     OW99902   9.354   5.592   0.954
32632SOL    HW199903   9.414   5.605   0.880
32632SOL    HW299904   9.400   5.629   1.029
32633SOL     OW99905   5.431   1.797   2.424
32633SOL    HW199906   5.478   1.782   2.342
32633SOL    HW299907   5.341   1.815   2.397
32634SOL     OW99908   6.216  10.952   9.022
32634SOL    HW199909   6.207  11.032   9.074
32634SOL    HW299910   6.144  10.896   9.051
32635SOL     OW99911   9.601   4.434   3.768
32635SOL    HW199912   9.654   4.500   3.812
32635SOL    HW299913   9.553   4.390   3.838
32636SOL     OW99914   3.349   1.407   7.648
32636SOL    HW199915   3.309   1.373   7.728
32636SOL    HW299916   3.281   1.460   7.607
32637SOL     OW99917   8.514   9.771   1.928
32637SOL    HW199918   8.506   9.866   1.920
32637SOL    HW299919   8.556   9.743   1.846
32638SOL     OW99920   5.506   2.121   3.808
32638SOL    HW199921   5.411   2.131   3.806
32638SOL    HW299922   5.524   2.075   3.890
32639SOL     OW99923   6.079   3.736   1.349
32639SOL    HW199924   6.014   3.666   1.360
32639SOL    HW299925   6.032   3.805   1.302
32640SOL     OW99926   0.586   8.151   5.959
32640SOL    HW199927   0.593   8.223   5.896
32640SOL    HW299928   0.603   8.072   5.907
32641SOL     OW99929   1.698   0.046   3.835
32641SOL    HW199930   1.704   0.132   3.794
32641SOL    HW299931   1.786   0.029   3.868
32642SOL     OW99932  10.362   5.886   5.211
32642SOL    HW199933  10.447   5.843   5.201
32642SOL    HW299934  10.306   5.820   5.252
32643SOL     OW99935   2.144   9.300  10.154
32643SOL    HW199936   2.183   9.383  10.127
32643SOL    HW299937   2.054   9.322  10.176
32644SOL     OW99938   6.614  10.025   3.446
32644SOL    HW199939   6.621  10.019   3.350
32644SOL    HW299940   6.543  10.087   3.461
32645SOL     OW99941   6.368  10.837   8.497
32645SOL    HW199942   6.458  10.870   8.494
32645SOL    HW299943   6.341  10.849   8.588
32646SOL     OW99944   6.166   2.569   4.189
32646SOL    HW199945   6.110   2.644   4.173
32646SOL    HW299946   6.200   2.582   4.277
32647SOL     OW99947   6.312   3.532   1.937
32647SOL    HW199948   6.320   3.596   2.007
32647SOL    HW299949   6.253   3.573   1.874
32648SOL     OW99950  10.480   1.325   8.242
32648SOL    HW199951  10.495   1.402   8.187
32648SOL    HW299952  10.568   1.292   8.261
32649SOL     OW99953   7.394   5.483   9.110
32649SOL    HW199954   7.484   5.499   9.139
32649SOL    HW299955   7.339   5.526   9.176
32650SOL     OW99956   8.973   4.668   7.697
32650SOL    HW199957   8.968   4.660   7.792
32650SOL    HW299958   9.060   4.634   7.675
32651SOL     OW99959   8.203   1.867   1.923
32651SOL    HW199960   8.203   1.942   1.982
32651SOL    HW299961   8.140   1.890   1.855
32652SOL     OW99962   9.335   7.329   4.402
32652SOL    HW199963   9.251   7.347   4.444
32652SOL    HW299964   9.399   7.330   4.473
32653SOL     OW99965  10.823   1.027   5.661
32653SOL    HW199966  10.823   1.099   5.724
32653SOL    HW299967  10.735   1.027   5.624
32654SOL     OW99968   3.032   6.738   8.994
32654SOL    HW199969   3.071   6.825   8.994
32654SOL    HW299970   3.071   6.694   9.069
32655SOL     OW99971   6.559   8.429   5.268
32655SOL    HW199972   6.518   8.365   5.326
32655SOL    HW299973   6.494   8.444   5.200
32656SOL     OW99974   0.510   9.693  10.231
32656SOL    HW199975   0.502   9.723  10.140
32656SOL    HW299976   0.453   9.616  10.236
32657SOL     OW99977   7.842   1.427   8.056
32657SOL    HW199978   7.810   1.477   8.131
32657SOL    HW299979   7.910   1.370   8.092
32658SOL     OW99980   0.114   2.597   7.842
32658SOL    HW199981   0.162   2.625   7.919
32658SOL    HW299982   0.042   2.543   7.876
32659SOL     OW99983   2.668   6.387   6.973
32659SOL    HW199984   2.708   6.471   6.994
32659SOL    HW299985   2.601   6.408   6.908
32660SOL     OW99986   6.275   1.465   4.057
32660SOL    HW199987   6.267   1.558   4.036
32660SOL    HW299988   6.280   1.421   3.971
32661SOL     OW99989  10.856   4.946   7.408
32661SOL    HW199990  10.873   5.006   7.480
32661SOL    HW299991  10.761   4.932   7.409
32662SOL     OW99992  10.069  10.249   6.574
32662SOL    HW199993  10.122  10.324   6.546
32662SOL    HW299994  10.123  10.173   6.553
32663SOL     OW99995  10.053   5.094   9.010
32663SOL    HW199996  10.141   5.065   9.036
32663SOL    HW299997  10.003   5.013   9.003
32664SOL     OW99998   7.638   0.681   1.167
32664SOL    HW199999   7.616   0.773   1.174
32664SOL    HW2    0   7.602   0.641   1.246
32665SOL     OW    1   9.151   3.767   5.555
32665SOL    HW1    2   9.169   3.859   5.570
32665SOL    HW2    3   9.234   3.731   5.524
32666SOL     OW    4   2.565   5.901   3.623
32666SOL    HW1    5   2.538   5.988   3.595
32666SOL    HW2    6   2.490   5.868   3.673
32667SOL     OW    7   7.770   3.882   9.578
32667SOL    HW1    8   7.720   3.800   9.582
32667SOL    HW2    9   7.775   3.912   9.668
32668SOL     OW   10   7.108   7.076   2.920
32668SOL    HW1   11   7.128   6.985   2.897
32668SOL    HW2   12   7.019   7.089   2.888
32669SOL     OW   13   5.387   0.795   6.161
32669SOL    HW1   14   5.320   0.727   6.168
32669SOL    HW2   15   5.340   0.877   6.174
32670SOL     OW   16   3.019   2.336   3.394
32670SOL    HW1   17   3.016   2.328   3.489
32670SOL    HW2   18   2.954   2.402   3.372
32671SOL     OW   19   7.737   5.157   1.354
32671SOL    HW1   20   7.822   5.116   1.336
32671SOL    HW2   21   7.680   5.084   1.380
32672SOL     OW   22   5.408   8.681   1.391
32672SOL    HW1   23   5.325   8.673   1.437
32672SOL    HW2   24   5.451   8.596   1.404
32673SOL     OW   25   3.130   3.676   1.787
32673SOL    HW1   26   3.139   3.738   1.715
32673SOL    HW2   27   3.191   3.707   1.853
32674SOL     OW   28   6.967  11.066   2.545
32674SOL    HW1   29   6.905  10.995   2.562
32674SOL    HW2   30   6.997  11.051   2.455
32675SOL     OW   31   7.293   1.214  10.675
32675SOL    HW1   32   7.281   1.256  10.590
32675SOL    HW2   33   7.387   1.222  10.692
32676SOL     OW   34   6.755   0.856   3.109
32676SOL    HW1   35   6.772   0.902   3.191
32676SOL    HW2   36   6.799   0.909   3.042
32677SOL     OW   37   3.710  10.383   6.826
32677SOL    HW1   38   3.780  10.448   6.827
32677SOL    HW2   39   3.742  10.315   6.766
32678SOL     OW   40   2.761   3.898   2.665
32678SOL    HW1   41   2.674   3.872   2.694
32678SOL    HW2   42   2.820   3.840   2.713
32679SOL     OW   43   4.576   2.230   6.855
32679SOL    HW1   44   4.670   2.246   6.843
32679SOL    HW2   45   4.565   2.220   6.949
32680SOL     OW   46  10.845   1.154   1.216
32680SOL    HW1   47  10.896   1.178   1.293
32680SOL    HW2   48  10.754   1.154   1.246
32681SOL     OW   49   8.820   7.807   3.183
32681SOL    HW1   50   8.868   7.777   3.106
32681SOL    HW2   51   8.735   7.833   3.149
32682SOL     OW   52   1.058   7.126   1.782
32682SOL    HW1   53   1.148   7.130   1.814
32682SOL    HW2   54   1.067   7.123   1.686
32683SOL     OW   55   3.056   6.103   3.305
32683SOL    HW1   56   2.979   6.121   3.359
32683SOL    HW2   57   3.131   6.117   3.363
32684SOL     OW   58   6.417   9.117   2.754
32684SOL    HW1   59   6.489   9.069   2.796
32684SOL    HW2   60   6.430   9.102   2.660
32685SOL     OW   61   8.301   0.246   7.536
32685SOL    HW1   62   8.264   0.333   7.550
32685SOL    HW2   63   8.395   0.261   7.523
32686SOL     OW   64   4.153   7.170   1.243
32686SOL    HW1   65   4.079   7.224   1.271
32686SOL    HW2   66   4.215   7.232   1.204
32687SOL     OW   67   5.387   6.236   9.394
32687SOL    HW1   68   5.395   6.329   9.415
32687SOL    HW2   69   5.308   6.208   9.440
32688SOL     OW   70   7.373   4.533   1.443
32688SOL    HW1   71   7.385   4.582   1.524
32688SOL    HW2   72   7.295   4.572   1.403
32689SOL     OW   73   0.573   9.094  10.130
32689SOL    HW1   74   0.536   9.040  10.060
32689SOL    HW2   75   0.627   9.158  10.084
32690SOL     OW   76   8.472   4.096   3.009
32690SOL    HW1   77   8.531   4.165   2.980
32690SOL    HW2   78   8.402   4.141   3.056
32691SOL     OW   79   4.884   3.617   0.962
32691SOL    HW1   80   4.863   3.703   0.998
32691SOL    HW2   81   4.929   3.571   1.033
32692SOL     OW   82   9.791   8.043   4.977
32692SOL    HW1   83   9.828   8.114   5.029
32692SOL    HW2   84   9.711   8.079   4.940
32693SOL     OW   85   8.179   2.275   9.141
32693SOL    HW1   86   8.238   2.283   9.066
32693SOL    HW2   87   8.103   2.329   9.117
32694SOL     OW   88   5.927   2.116   5.323
32694SOL    HW1   89   5.922   2.134   5.417
32694SOL    HW2   90   5.911   2.022   5.316
32695SOL     OW   91   9.617   7.755  10.823
32695SOL    HW1   92   9.666   7.832  10.796
32695SOL    HW2   93   9.643   7.687  10.761
32696SOL     OW   94  10.441   6.023   7.009
32696SOL    HW1   95  10.360   6.072   7.002
32696SOL    HW2   96  10.485   6.060   7.085
32697SOL     OW   97   3.211  10.113   2.812
32697SOL    HW1   98   3.196  10.192   2.759
32697SOL    HW2   99   3.182  10.136   2.900
32698SOL     OW  100   1.515   5.827   2.374
32698SOL    HW1  101   1.582   5.815   2.306
32698SOL    HW2  102   1.498   5.921   2.375
32699SOL     OW  103  10.019   6.940   7.359
32699SOL    HW1  104  10.007   6.846   7.344
32699SOL    HW2  105   9.979   6.956   7.444
32700SOL     OW  106   4.223   6.872   8.567
32700SOL    HW1  107   4.289   6.817   8.610
32700SOL    HW2  108   4.142   6.820   8.570
32701SOL     OW  109   9.897   1.627   0.548
32701SOL    HW1  110   9.834   1.646   0.617
32701SOL    HW2  111   9.981   1.621   0.593
32702SOL     OW  112  11.080   6.698   1.767
32702SOL    HW1  113  11.020   6.753   1.817
32702SOL    HW2  114  11.163   6.702   1.815
32703SOL     OW  115  10.914   4.067   7.202
32703SOL    HW1  116  11.002   4.105   7.202
32703SOL    HW2  117  10.865   4.121   7.263
32704SOL     OW  118   0.560   4.516   8.457
32704SOL    HW1  119   0.533   4.556   8.374
32704SOL    HW2  120   0.478   4.497   8.503
32705SOL     OW  121   6.882   0.123   1.962
32705SOL    HW1  122   6.808   0.079   2.003
32705SOL    HW2  123   6.911   0.187   2.026
32706SOL     OW  124   9.279   6.658   6.124
32706SOL    HW1  125   9.316   6.695   6.204
32706SOL    HW2  126   9.323   6.573   6.114
32707SOL     OW  127   0.932   0.552   9.610
32707SOL    HW1  128   0.860   0.529   9.551
32707SOL    HW2  129   1.006   0.568   9.551
32708SOL     OW  130  11.076   5.267   0.427
32708SOL    HW1  131  11.135   5.328   0.471
32708SOL    HW2  132  11.070   5.300   0.337
32709SOL     OW  133   8.604   2.229   4.360
32709SOL    HW1  134   8.619   2.240   4.454
32709SOL    HW2  135   8.676   2.276   4.318
32710SOL     OW  136  11.079   3.091   6.771
32710SOL    HW1  137  11.174   3.100   6.780
32710SOL    HW2  138  11.066   3.067   6.679
32711SOL     OW  139   9.890   4.634   2.244
32711SOL    HW1  140   9.924   4.671   2.325
32711SOL    HW2  141   9.964   4.586   2.207
32712SOL     OW  142   4.643   5.532  10.839
32712SOL    HW1  143   4.609   5.599  10.897
32712SOL    HW2  144   4.692   5.473  10.896
32713SOL     OW  145   7.239   0.435   2.147
32713SOL    HW1  146   7.334   0.426   2.137
32713SOL    HW2  147   7.217   0.377   2.220
32714SOL     OW  148   2.555   7.979   4.552
32714SOL    HW1  149   2.650   7.972   4.543
32714SOL    HW2  150   2.529   8.039   4.482
32715SOL     OW  151  10.403   8.350   9.499
32715SOL    HW1  152  10.408   8.400   9.580
32715SOL    HW2  153  10.466   8.279   9.510
32716SOL     OW  154   1.207   5.311  10.586
32716SOL    HW1  155   1.261   5.355  10.651
32716SOL    HW2  156   1.119   5.345  10.601
32717SOL     OW  157   8.733  10.461   2.352
32717SOL    HW1  158   8.691  10.376   2.365
32717SOL    HW2  159   8.661  10.520   2.330
32718SOL     OW  160   3.878   3.291   3.941
32718SOL    HW1  161   3.821   3.221   3.973
32718SOL    HW2  162   3.959   3.280   3.991
32719SOL     OW  163   0.650   2.242   2.657
32719SOL    HW1  164   0.686   2.258   2.744
32719SOL    HW2  165   0.614   2.326   2.630
32720SOL     OW  166   7.133   8.137   5.415
32720SOL    HW1  167   7.225   8.159   5.432
32720SOL    HW2  168   7.134   8.042   5.402
32721SOL     OW  169   2.915   0.212  10.930
32721SOL    HW1  170   2.989   0.254  10.886
32721SOL    HW2  171   2.894   0.270  11.003
32722SOL     OW  172   2.903   7.485   0.292
32722SOL    HW1  173   2.910   7.565   0.343
32722SOL    HW2  174   2.823   7.496   0.241
32723SOL     OW  175   5.349   6.224  10.934
32723SOL    HW1  176   5.304   6.298  10.973
32723SOL    HW2  177   5.283   6.155  10.930
32724SOL     OW  178   9.654   0.115   8.874
32724SOL    HW1  179   9.697   0.114   8.959
32724SOL    HW2  180   9.576   0.061   8.885
32725SOL     OW  181  10.727   0.744   4.990
32725SOL    HW1  182  10.705   0.658   5.026
32725SOL    HW2  183  10.791   0.780   5.051
32726SOL     OW  184   4.603   0.627  10.684
32726SOL    HW1  185   4.617   0.658  10.773
32726SOL    HW2  186   4.526   0.674  10.653
32727SOL     OW  187   8.281   5.772   2.617
32727SOL    HW1  188   8.204   5.716   2.603
32727SOL    HW2  189   8.246   5.860   2.628
32728SOL     OW  190   1.751   6.114   3.597
32728SOL    HW1  191   1.845   6.126   3.610
32728SOL    HW2  192   1.741   6.111   3.502
32729SOL     OW  193   8.883   1.188   4.682
32729SOL    HW1  194   8.886   1.108   4.735
32729SOL    HW2  195   8.966   1.188   4.634
32730SOL     OW  196   9.143   8.012   8.020
32730SOL    HW1  197   9.088   8.087   7.999
32730SOL    HW2  198   9.186   8.036   8.102
32731SOL     OW  199   5.731   4.478   1.602
32731SOL    HW1  200   5.715   4.402   1.545
32731SOL    HW2  201   5.667   4.543   1.574
32732SOL     OW  202  10.223   8.414   2.788
32732SOL    HW1  203  10.220   8.417   2.883
32732SOL    HW2  204  10.206   8.322   2.766
32733SOL     OW  205   9.375   4.541   0.171
32733SOL    HW1  206   9.355   4.631   0.148
32733SOL    HW2  207   9.291   4.504   0.197
32734SOL     OW  208   7.785   3.305   1.027
32734SOL    HW1  209   7.739   3.232   0.984
32734SOL    HW2  210   7.870   3.308   0.983
32735SOL     OW  211   6.860   4.460   0.799
32735SOL    HW1  212   6.819   4.387   0.846
32735SOL    HW2  213   6.909   4.507   0.866
32736SOL     OW  214   0.589   5.983   0.748
32736SOL    HW1  215   0.540   6.048   0.697
32736SOL    HW2  216   0.603   6.024   0.833
32737SOL     OW  217   2.044   4.914  10.950
32737SOL    HW1  218   2.094   4.860  11.011
32737SOL    HW2  219   1.996   4.975  11.005
32738SOL     OW  220   5.974   8.438   0.767
32738SOL    HW1  221   5.906   8.389   0.721
32738SOL    HW2  222   6.021   8.484   0.697
32739SOL     OW  223   1.383   6.253   3.404
32739SOL    HW1  224   1.386   6.167   3.447
32739SOL    HW2  225   1.301   6.292   3.434
32740SOL     OW  226   3.546   2.088   1.422
32740SOL    HW1  227   3.513   2.159   1.477
32740SOL    HW2  228   3.534   2.119   1.332
32741SOL     OW  229   3.410   9.977   8.470
32741SOL    HW1  230   3.321   9.997   8.442
32741SOL    HW2  231   3.441  10.057   8.511
32742SOL     OW  232  11.049   5.908   1.441
32742SOL    HW1  233  11.111   5.843   1.408
32742SOL    HW2  234  11.103   5.972   1.486
32743SOL     OW  235   5.070   6.746   3.852
32743SOL    HW1  236   5.034   6.679   3.793
32743SOL    HW2  237   5.028   6.827   3.825
32744SOL     OW  238  10.704   0.694   2.147
32744SOL    HW1  239  10.754   0.637   2.088
32744SOL    HW2  240  10.754   0.775   2.150
32745SOL     OW  241   5.285   0.675   7.912
32745SOL    HW1  242   5.257   0.740   7.847
32745SOL    HW2  243   5.363   0.713   7.952
32746SOL     OW  244   9.287   4.141   7.830
32746SOL    HW1  245   9.215   4.102   7.780
32746SOL    HW2  246   9.366   4.103   7.792
32747SOL     OW  247   0.799   0.403   3.649
32747SOL    HW1  248   0.723   0.451   3.617
32747SOL    HW2  249   0.790   0.403   3.744
32748SOL     OW  250   5.966   4.345   3.534
32748SOL    HW1  251   5.981   4.252   3.516
32748SOL    HW2  252   5.978   4.388   3.449
32749SOL     OW  253   7.684   8.195   0.154
32749SOL    HW1  254   7.757   8.142   0.187
32749SOL    HW2  255   7.720   8.283   0.147
32750SOL     OW  256   6.334  10.664   3.030
32750SOL    HW1  257   6.273  10.668   3.103
32750SOL    HW2  258   6.308  10.585   2.982
32751SOL     OW  259  10.123   7.221   5.105
32751SOL    HW1  260  10.160   7.280   5.039
32751SOL    HW2  261  10.200   7.182   5.147
32752SOL     OW  262   4.037   6.930   0.874
32752SOL    HW1  263   4.098   6.878   0.926
32752SOL    HW2  264   3.975   6.965   0.938
32753SOL     OW  265   6.837   6.363   4.140
32753SOL    HW1  266   6.773   6.429   4.117
32753SOL    HW2  267   6.802   6.323   4.219
32754SOL     OW  268   7.310   1.903   3.698
32754SOL    HW1  269   7.337   1.898   3.789
32754SOL    HW2  270   7.384   1.944   3.653
32755SOL     OW  271   9.556   0.645   8.552
32755SOL    HW1  272   9.469   0.615   8.527
32755SOL    HW2  273   9.605   0.647   8.470
32756SOL     OW  274   6.258   0.232   0.197
32756SOL    HW1  275   6.276   0.287   0.121
32756SOL    HW2  276   6.324   0.258   0.262
32757SOL     OW  277  10.630   7.474   1.451
32757SOL    HW1  278  10.696   7.540   1.470
32757SOL    HW2  279  10.672   7.416   1.387
32758SOL     OW  280   5.071   2.483   5.630
32758SOL    HW1  281   5.055   2.574   5.607
32758SOL    HW2  282   5.077   2.438   5.545
32759SOL     OW  283  10.759   1.092   2.372
32759SOL    HW1  284  10.783   1.120   2.460
32759SOL    HW2  285  10.668   1.119   2.361
32760SOL     OW  286   6.637   5.434   9.910
32760SOL    HW1  287   6.611   5.450   9.819
32760SOL    HW2  288   6.565   5.468   9.962
32761SOL     OW  289   9.253   3.725   0.705
32761SOL    HW1  290   9.295   3.740   0.789
32761SOL    HW2  291   9.321   3.745   0.640
32762SOL     OW  292   9.562  10.770  10.548
32762SOL    HW1  293   9.607  10.686  10.539
32762SOL    HW2  294   9.535  10.792  10.458
32763SOL     OW  295   0.949  10.553   5.786
32763SOL    HW1  296   0.887  10.623   5.767
32763SOL    HW2  297   1.035  10.593   5.773
32764SOL     OW  298   9.333   4.042  10.601
32764SOL    HW1  299   9.369   3.989  10.530
32764SOL    HW2  300   9.314   3.979  10.670
32765SOL     OW  301   7.315   6.495  10.323
32765SOL    HW1  302   7.354   6.520  10.239
32765SOL    HW2  303   7.232   6.541  10.325
32766SOL     OW  304   8.862   8.810   0.332
32766SOL    HW1  305   8.907   8.819   0.416
32766SOL    HW2  306   8.931   8.824   0.266
32767SOL     OW  307   6.881   6.977   8.747
32767SOL    HW1  308   6.867   6.887   8.776
32767SOL    HW2  309   6.955   6.971   8.687
32768SOL     OW  310   8.097   7.086   9.233
32768SOL    HW1  311   8.152   7.057   9.306
32768SOL    HW2  312   8.016   7.036   9.242
32769SOL     OW  313   5.145   6.242   6.173
32769SOL    HW1  314   5.091   6.262   6.096
32769SOL    HW2  315   5.098   6.172   6.219
32770SOL     OW  316  10.501   7.271  10.070
32770SOL    HW1  317  10.586   7.267  10.025
32770SOL    HW2  318  10.518   7.321  10.149
32771SOL     OW  319   6.900   3.535   8.386
32771SOL    HW1  320   6.991   3.563   8.377
32771SOL    HW2  321   6.878   3.555   8.477
32772SOL     OW  322   0.552   7.573   6.641
32772SOL    HW1  323   0.531   7.564   6.734
32772SOL    HW2  324   0.594   7.658   6.634
32773SOL     OW  325  10.781  10.933   9.609
32773SOL    HW1  326  10.817  10.984   9.681
32773SOL    HW2  327  10.843  10.947   9.537
32774SOL     OW  328   8.058   5.607   3.171
32774SOL    HW1  329   7.974   5.636   3.205
32774SOL    HW2  330   8.086   5.539   3.232
32775SOL     OW  331   3.379   2.578   4.250
32775SOL    HW1  332   3.328   2.623   4.183
32775SOL    HW2  333   3.462   2.557   4.206
32776SOL     OW  334   1.678   6.820   7.661
32776SOL    HW1  335   1.644   6.735   7.690
32776SOL    HW2  336   1.767   6.801   7.631
32777SOL     OW  337   8.430   2.039   2.381
32777SOL    HW1  338   8.520   2.041   2.415
32777SOL    HW2  339   8.441   2.021   2.287
32778SOL     OW  340   5.150   3.238   1.757
32778SOL    HW1  341   5.081   3.193   1.708
32778SOL    HW2  342   5.178   3.175   1.823
32779SOL     OW  343   2.396  11.065   8.524
32779SOL    HW1  344   2.336  11.054   8.450
32779SOL    HW2  345   2.339  11.075   8.600
32780SOL     OW  346   8.940   7.547  10.741
32780SOL    HW1  347   9.017   7.564  10.686
32780SOL    HW2  348   8.867   7.542  10.679
32781SOL     OW  349   0.560   8.843   4.460
32781SOL    HW1  350   0.573   8.849   4.365
32781SOL    HW2  351   0.507   8.919   4.482
32782SOL     OW  352   8.045   4.334   3.231
32782SOL    HW1  353   8.044   4.428   3.215
32782SOL    HW2  354   8.056   4.326   3.325
32783SOL     OW  355   5.454   3.518  10.193
32783SOL    HW1  356   5.424   3.518  10.284
32783SOL    HW2  357   5.423   3.434  10.158
32784SOL     OW  358  10.099   2.107   9.256
32784SOL    HW1  359  10.067   2.042   9.193
32784SOL    HW2  360  10.024   2.163   9.273
32785SOL     OW  361   6.588   7.549   7.782
32785SOL    HW1  362   6.534   7.627   7.772
32785SOL    HW2  363   6.635   7.541   7.698
32786SOL     OW  364   0.648   8.245   0.570
32786SOL    HW1  365   0.585   8.257   0.499
32786SOL    HW2  366   0.595   8.247   0.649
32787SOL     OW  367   5.817   3.584   0.254
32787SOL    HW1  368   5.874   3.616   0.184
32787SOL    HW2  369   5.826   3.648   0.324
32788SOL     OW  370   5.126   1.242   8.820
32788SOL    HW1  371   5.186   1.202   8.883
32788SOL    HW2  372   5.039   1.226   8.855
32789SOL     OW  373   0.266   8.415   5.594
32789SOL    HW1  374   0.231   8.501   5.616
32789SOL    HW2  375   0.189   8.362   5.574
32790SOL     OW  376   9.532   9.206   8.604
32790SOL    HW1  377   9.514   9.282   8.549
32790SOL    HW2  378   9.446   9.170   8.625
32791SOL     OW  379   0.515   8.359   9.892
32791SOL    HW1  380   0.531   8.422   9.962
32791SOL    HW2  381   0.431   8.319   9.914
32792SOL     OW  382   6.675   1.833   0.737
32792SOL    HW1  383   6.693   1.794   0.651
32792SOL    HW2  384   6.756   1.820   0.786
32793SOL     OW  385   6.534  10.159   7.279
32793SOL    HW1  386   6.538  10.066   7.254
32793SOL    HW2  387   6.621  10.178   7.313
32794SOL     OW  388   8.976   5.481   7.249
32794SOL    HW1  389   8.888   5.443   7.250
32794SOL    HW2  390   9.035   5.405   7.246
32795SOL     OW  391   8.516   5.938  10.902
32795SOL    HW1  392   8.451   5.994  10.860
32795SOL    HW2  393   8.531   5.978  10.987
32796SOL     OW  394   2.995   1.350  10.985
32796SOL    HW1  395   3.071   1.391  10.943
32796SOL    HW2  396   2.983   1.398  11.067
32797SOL     OW  397   7.971   3.887   6.437
32797SOL    HW1  398   7.991   3.818   6.500
32797SOL    HW2  399   8.030   3.870   6.363
32798SOL     OW  400   2.548   8.371   8.996
32798SOL    HW1  401   2.542   8.282   8.959
32798SOL    HW2  402   2.496   8.425   8.936
32799SOL     OW  403   9.740   5.927   0.437
32799SOL    HW1  404   9.695   5.952   0.356
32799SOL    HW2  405   9.819   5.981   0.438
32800SOL     OW  406   9.109   6.022   0.942
32800SOL    HW1  407   9.141   6.024   0.851
32800SOL    HW2  408   9.052   5.945   0.946
32801SOL     OW  409   7.280   1.096   9.913
32801SOL    HW1  410   7.245   1.148   9.984
32801SOL    HW2  411   7.203   1.062   9.868
32802SOL     OW  412   5.921   4.181   3.813
32802SOL    HW1  413   5.850   4.208   3.754
32802SOL    HW2  414   5.968   4.114   3.763
32803SOL     OW  415   8.716   4.042   4.913
32803SOL    HW1  416   8.690   4.082   4.830
32803SOL    HW2  417   8.807   4.015   4.899
32804SOL     OW  418   7.939  10.836   5.805
32804SOL    HW1  419   7.872  10.798   5.748
32804SOL    HW2  420   8.013  10.776   5.798
32805SOL     OW  421  10.544   5.725   4.193
32805SOL    HW1  422  10.487   5.747   4.119
32805SOL    HW2  423  10.579   5.638   4.171
32806SOL     OW  424   0.387   1.739   0.747
32806SOL    HW1  425   0.370   1.683   0.823
32806SOL    HW2  426   0.331   1.703   0.678
32807SOL     OW  427   9.158   2.337   2.552
32807SOL    HW1  428   9.159   2.255   2.601
32807SOL    HW2  429   9.078   2.380   2.580
32808SOL     OW  430   6.042   5.579   9.762
32808SOL    HW1  431   5.985   5.615   9.694
32808SOL    HW2  432   6.051   5.649   9.826
32809SOL     OW  433   8.813   8.580   4.025
32809SOL    HW1  434   8.882   8.646   4.029
32809SOL    HW2  435   8.824   8.540   3.938
32810SOL     OW  436   6.548   0.097   5.015
32810SOL    HW1  437   6.618   0.037   4.988
32810SOL    HW2  438   6.552   0.097   5.110
32811SOL     OW  439   6.607   9.691   1.536
32811SOL    HW1  440   6.529   9.639   1.519
32811SOL    HW2  441   6.679   9.628   1.532
32812SOL     OW  442   3.717   3.463   2.208
32812SOL    HW1  443   3.812   3.455   2.215
32812SOL    HW2  444   3.695   3.536   2.266
32813SOL     OW  445   3.660   4.986   2.568
32813SOL    HW1  446   3.625   4.974   2.656
32813SOL    HW2  447   3.583   4.995   2.512
32814SOL     OW  448   7.315   7.922  10.161
32814SOL    HW1  449   7.289   7.849  10.218
32814SOL    HW2  450   7.258   7.914  10.084
32815SOL     OW  451   7.294   2.852   7.092
32815SOL    HW1  452   7.207   2.892   7.092
32815SOL    HW2  453   7.353   2.922   7.065
32816SOL     OW  454   5.092   1.353   9.243
32816SOL    HW1  455   5.005   1.315   9.231
32816SOL    HW2  456   5.147   1.279   9.271
32817SOL     OW  457  10.296   8.410  11.010
32817SOL    HW1  458  10.314   8.503  11.019
32817SOL    HW2  459  10.375   8.367  11.044
32818SOL     OW  460   5.519   0.204   4.512
32818SOL    HW1  461   5.485   0.132   4.458
32818SOL    HW2  462   5.596   0.235   4.464
32819SOL     OW  463   4.738   2.133   0.367
32819SOL    HW1  464   4.754   2.227   0.356
32819SOL    HW2  465   4.821   2.092   0.343
32820SOL     OW  466  10.277   1.809   0.718
32820SOL    HW1  467  10.253   1.901   0.726
32820SOL    HW2  468  10.351   1.808   0.656
32821SOL     OW  469   6.364   1.693   8.610
32821SOL    HW1  470   6.378   1.614   8.557
32821SOL    HW2  471   6.378   1.765   8.549
32822SOL     OW  472   9.608   8.652  10.895
32822SOL    HW1  473   9.684   8.594  10.901
32822SOL    HW2  474   9.565   8.627  10.813
32823SOL     OW  475   0.713   9.584   7.530
32823SOL    HW1  476   0.775   9.631   7.475
32823SOL    HW2  477   0.692   9.505   7.480
32824SOL     OW  478  10.578   3.103   3.289
32824SOL    HW1  479  10.508   3.150   3.334
32824SOL    HW2  480  10.646   3.168   3.274
32825SOL     OW  481   7.239   9.844   7.348
32825SOL    HW1  482   7.247   9.765   7.402
32825SOL    HW2  483   7.196   9.813   7.268
32826SOL     OW  484   5.129   6.873   4.526
32826SOL    HW1  485   5.103   6.822   4.602
32826SOL    HW2  486   5.159   6.807   4.463
32827SOL     OW  487   5.143   7.486   4.787
32827SOL    HW1  488   5.113   7.473   4.877
32827SOL    HW2  489   5.227   7.531   4.796
32828SOL     OW  490   4.938   1.812   0.063
32828SOL    HW1  491   4.892   1.797  -0.019
32828SOL    HW2  492   4.986   1.893   0.049
32829SOL     OW  493   9.327   6.314   2.437
32829SOL    HW1  494   9.262   6.344   2.500
32829SOL    HW2  495   9.295   6.228   2.408
32830SOL     OW  496   2.049   7.956   9.163
32830SOL    HW1  497   2.069   7.914   9.246
32830SOL    HW2  498   2.112   8.028   9.157
32831SOL     OW  499   7.821   3.744   7.599
32831SOL    HW1  500   7.871   3.688   7.540
32831SOL    HW2  501   7.735   3.702   7.605
32832SOL     OW  502   5.657   9.520   3.973
32832SOL    HW1  503   5.681   9.477   3.890
32832SOL    HW2  504   5.641   9.447   4.033
32833SOL     OW  505   4.686   7.556   2.275
32833SOL    HW1  506   4.713   7.541   2.366
32833SOL    HW2  507   4.755   7.611   2.238
32834SOL     OW  508   8.582   9.260   9.239
32834SOL    HW1  509   8.619   9.347   9.223
32834SOL    HW2  510   8.551   9.262   9.329
32835SOL     OW  511   1.118   9.335   9.859
32835SOL    HW1  512   1.111   9.390   9.936
32835SOL    HW2  513   1.147   9.250   9.892
32836SOL     OW  514   7.130   0.065   1.825
32836SOL    HW1  515   7.051   0.065   1.878
32836SOL    HW2  516   7.201   0.079   1.887
32837SOL     OW  517   4.207   4.493   9.106
32837SOL    HW1  518   4.182   4.560   9.042
32837SOL    HW2  519   4.249   4.424   9.054
32838SOL     OW  520   7.374   3.512   7.446
32838SOL    HW1  521   7.317   3.553   7.381
32838SOL    HW2  522   7.333   3.532   7.530
32839SOL     OW  523   9.458   8.506   1.035
32839SOL    HW1  524   9.434   8.461   0.953
32839SOL    HW2  525   9.420   8.452   1.104
32840SOL     OW  526   8.440   5.077   1.305
32840SOL    HW1  527   8.370   5.012   1.316
32840SOL    HW2  528   8.437   5.099   1.212
32841SOL     OW  529   2.073   4.157  10.933
32841SOL    HW1  530   2.103   4.243  10.904
32841SOL    HW2  531   2.037   4.117  10.853
32842SOL     OW  532   1.666   6.132   4.358
32842SOL    HW1  533   1.611   6.209   4.367
32842SOL    HW2  534   1.635   6.072   4.426
32843SOL     OW  535   2.441   4.909   4.595
32843SOL    HW1  536   2.472   4.831   4.642
32843SOL    HW2  537   2.482   4.982   4.640
32844SOL     OW  538   0.855  10.159   5.713
32844SOL    HW1  539   0.929  10.112   5.674
32844SOL    HW2  540   0.893  10.206   5.787
32845SOL     OW  541  10.231   9.258   5.143
32845SOL    HW1  542  10.286   9.238   5.067
32845SOL    HW2  543  10.188   9.340   5.120
32846SOL     OW  544   4.048   5.371   0.465
32846SOL    HW1  545   3.966   5.324   0.478
32846SOL    HW2  546   4.114   5.315   0.506
32847SOL     OW  547   4.568   5.508   0.971
32847SOL    HW1  548   4.498   5.467   1.022
32847SOL    HW2  549   4.525   5.581   0.926
32848SOL     OW  550   6.238   7.037  10.777
32848SOL    HW1  551   6.146   7.016  10.792
32848SOL    HW2  552   6.275   6.957  10.739
32849SOL     OW  553  11.033   6.999   2.716
32849SOL    HW1  554  11.006   7.061   2.648
32849SOL    HW2  555  11.118   6.965   2.686
32850SOL     OW  556   4.181   6.884  11.032
32850SOL    HW1  557   4.243   6.856  11.099
32850SOL    HW2  558   4.160   6.803  10.985
32851SOL     OW  559   8.124   9.487   9.569
32851SOL    HW1  560   8.039   9.473   9.527
32851SOL    HW2  561   8.164   9.400   9.572
32852SOL     OW  562   3.663   5.490   2.097
32852SOL    HW1  563   3.721   5.556   2.134
32852SOL    HW2  564   3.606   5.538   2.037
32853SOL     OW  565   6.880   3.777   2.319
32853SOL    HW1  566   6.799   3.822   2.342
32853SOL    HW2  567   6.922   3.758   2.402
32854SOL     OW  568   8.720   7.418   0.478
32854SOL    HW1  569   8.809   7.421   0.512
32854SOL    HW2  570   8.719   7.484   0.409
32855SOL     OW  571   8.854   8.959   9.453
32855SOL    HW1  572   8.928   9.019   9.464
32855SOL    HW2  573   8.819   8.980   9.366
32856SOL     OW  574   1.874   4.906   5.584
32856SOL    HW1  575   1.881   5.001   5.580
32856SOL    HW2  576   1.807   4.889   5.650
32857SOL     OW  577   5.045   4.838  10.645
32857SOL    HW1  578   4.965   4.789  10.666
32857SOL    HW2  579   5.019   4.930  10.649
32858SOL     OW  580   9.328   3.104   2.107
32858SOL    HW1  581   9.318   3.021   2.060
32858SOL    HW2  582   9.404   3.145   2.066
32859SOL     OW  583   8.142   5.504   4.556
32859SOL    HW1  584   8.146   5.529   4.648
32859SOL    HW2  585   8.194   5.423   4.551
32860SOL     OW  586   0.105   7.053   0.983
32860SOL    HW1  587   0.019   7.050   1.026
32860SOL    HW2  588   0.109   6.972   0.932
32861SOL     OW  589   4.554   6.612   5.568
32861SOL    HW1  590   4.641   6.624   5.529
32861SOL    HW2  591   4.494   6.621   5.494
32862SOL     OW  592   2.694   1.729   2.564
32862SOL    HW1  593   2.746   1.794   2.610
32862SOL    HW2  594   2.603   1.756   2.577
32863SOL     OW  595   0.188   2.815   0.942
32863SOL    HW1  596   0.272   2.859   0.951
32863SOL    HW2  597   0.178   2.765   1.023
32864SOL     OW  598   9.566   8.140   5.342
32864SOL    HW1  599   9.516   8.087   5.279
32864SOL    HW2  600   9.520   8.129   5.425
32865SOL     OW  601   0.657   7.411   3.997
32865SOL    HW1  602   0.649   7.318   4.019
32865SOL    HW2  603   0.750   7.423   3.978
32866SOL     OW  604   5.586   3.745   7.780
32866SOL    HW1  605   5.515   3.804   7.756
32866SOL    HW2  606   5.649   3.800   7.826
32867SOL     OW  607   7.792  10.143   1.844
32867SOL    HW1  608   7.713  10.109   1.885
32867SOL    HW2  609   7.844  10.177   1.916
32868SOL     OW  610   3.171   6.715   3.917
32868SOL    HW1  611   3.204   6.797   3.880
32868SOL    HW2  612   3.142   6.664   3.841
32869SOL     OW  613   9.855   1.326   1.898
32869SOL    HW1  614   9.774   1.365   1.929
32869SOL    HW2  615   9.906   1.399   1.863
32870SOL     OW  616   7.077   5.814   2.921
32870SOL    HW1  617   7.105   5.723   2.909
32870SOL    HW2  618   7.068   5.848   2.832
32871SOL     OW  619   4.864   9.625   5.050
32871SOL    HW1  620   4.951   9.584   5.050
32871SOL    HW2  621   4.879   9.712   5.014
32872SOL     OW  622   5.367   7.825   2.126
32872SOL    HW1  623   5.375   7.844   2.219
32872SOL    HW2  624   5.312   7.746   2.122
32873SOL     OW  625   6.655   8.368   1.763
32873SOL    HW1  626   6.633   8.331   1.677
32873SOL    HW2  627   6.742   8.406   1.751
32874SOL     OW  628   5.579   1.576  10.485
32874SOL    HW1  629   5.556   1.652  10.432
32874SOL    HW2  630   5.674   1.579  10.491
32875SOL     OW  631   9.268   8.180   6.053
32875SOL    HW1  632   9.312   8.095   6.057
32875SOL    HW2  633   9.323   8.238   6.105
32876SOL     OW  634   5.240   6.666   2.104
32876SOL    HW1  635   5.178   6.691   2.172
32876SOL    HW2  636   5.259   6.574   2.122
32877SOL     OW  637   1.288   7.855   5.292
32877SOL    HW1  638   1.371   7.827   5.253
32877SOL    HW2  639   1.276   7.944   5.261
32878SOL     OW  640   9.582  11.005   3.486
32878SOL    HW1  641   9.610  11.011   3.394
32878SOL    HW2  642   9.488  11.024   3.484
32879SOL     OW  643   6.621   8.491  10.416
32879SOL    HW1  644   6.575   8.492  10.332
32879SOL    HW2  645   6.574   8.426  10.468
32880SOL     OW  646   9.212   9.700   5.202
32880SOL    HW1  647   9.119   9.681   5.210
32880SOL    HW2  648   9.227   9.704   5.107
32881SOL     OW  649  10.380   4.340   5.929
32881SOL    HW1  650  10.301   4.366   5.975
32881SOL    HW2  651  10.384   4.397   5.852
32882SOL     OW  652   1.664   8.346   3.208
32882SOL    HW1  653   1.601   8.329   3.278
32882SOL    HW2  654   1.687   8.259   3.175
32883SOL     OW  655   0.415   5.429   2.211
32883SOL    HW1  656   0.505   5.398   2.199
32883SOL    HW2  657   0.423   5.524   2.218
32884SOL     OW  658   4.886   6.658   5.798
32884SOL    HW1  659   4.927   6.647   5.883
32884SOL    HW2  660   4.813   6.596   5.798
32885SOL     OW  661   7.006   4.749   4.341
32885SOL    HW1  662   7.060   4.691   4.394
32885SOL    HW2  663   7.027   4.724   4.251
32886SOL     OW  664   0.913   0.053   0.341
32886SOL    HW1  665   0.848  -0.016   0.326
32886SOL    HW2  666   0.995   0.014   0.311
32887SOL     OW  667   2.455   6.694   4.410
32887SOL    HW1  668   2.450   6.760   4.479
32887SOL    HW2  669   2.421   6.738   4.332
32888SOL     OW  670   9.110   3.668   8.032
32888SOL    HW1  671   9.196   3.710   8.025
32888SOL    HW2  672   9.090   3.670   8.125
32889SOL     OW  673   1.860   5.443  10.162
32889SOL    HW1  674   1.835   5.518  10.216
32889SOL    HW2  675   1.778   5.414  10.122
32890SOL     OW  676   7.360  10.040   1.769
32890SOL    HW1  677   7.308  10.047   1.689
32890SOL    HW2  678   7.388   9.948   1.771
32891SOL     OW  679   2.945   4.422   9.035
32891SOL    HW1  680   3.014   4.364   9.068
32891SOL    HW2  681   2.905   4.372   8.963
32892SOL     OW  682   7.310   5.897   0.256
32892SOL    HW1  683   7.386   5.909   0.313
32892SOL    HW2  684   7.260   5.826   0.297
32893SOL     OW  685   1.222   4.339   3.022
32893SOL    HW1  686   1.205   4.285   2.944
32893SOL    HW2  687   1.169   4.299   3.091
32894SOL     OW  688   8.580   7.185   8.758
32894SOL    HW1  689   8.536   7.175   8.842
32894SOL    HW2  690   8.547   7.268   8.723
32895SOL     OW  691   1.319   2.060   2.880
32895SOL    HW1  692   1.251   2.006   2.840
32895SOL    HW2  693   1.277   2.099   2.956
32896SOL     OW  694   2.795   8.293   5.548
32896SOL    HW1  695   2.883   8.256   5.534
32896SOL    HW2  696   2.811   8.384   5.574
32897SOL     OW  697   9.171   3.187   4.850
32897SOL    HW1  698   9.208   3.150   4.930
32897SOL    HW2  699   9.096   3.131   4.829
32898SOL     OW  700   1.350   6.405   3.694
32898SOL    HW1  701   1.309   6.318   3.693
32898SOL    HW2  702   1.297   6.456   3.755
32899SOL     OW  703   1.383   8.919   0.513
32899SOL    HW1  704   1.408   8.996   0.462
32899SOL    HW2  705   1.292   8.903   0.488
32900SOL     OW  706   0.122   6.737   6.433
32900SOL    HW1  707   0.185   6.689   6.379
32900SOL    HW2  708   0.061   6.669   6.463
32901SOL     OW  709   0.513   3.422   8.433
32901SOL    HW1  710   0.579   3.355   8.414
32901SOL    HW2  711   0.460   3.425   8.353
32902SOL     OW  712   6.782   3.745   0.478
32902SOL    HW1  713   6.835   3.818   0.447
32902SOL    HW2  714   6.693   3.779   0.480
32903SOL     OW  715   8.076   1.597   7.096
32903SOL    HW1  716   7.996   1.552   7.124
32903SOL    HW2  717   8.045   1.675   7.050
32904SOL     OW  718   8.482   3.909   3.545
32904SOL    HW1  719   8.577   3.895   3.549
32904SOL    HW2  720   8.454   3.914   3.636
32905SOL     OW  721   5.950   9.134   3.081
32905SOL    HW1  722   5.918   9.221   3.058
32905SOL    HW2  723   5.923   9.078   3.007
32906SOL     OW  724   9.865   7.081   3.856
32906SOL    HW1  725   9.956   7.099   3.832
32906SOL    HW2  726   9.842   7.149   3.918
32907SOL     OW  727   1.117  11.046  10.991
32907SOL    HW1  728   1.185  11.050  11.058
32907SOL    HW2  729   1.096  11.138  10.973
32908SOL     OW  730  10.050   7.177   9.351
32908SOL    HW1  731  10.070   7.261   9.311
32908SOL    HW2  732   9.955   7.170   9.347
32909SOL     OW  733  10.107   8.026   0.378
32909SOL    HW1  734  10.045   8.082   0.332
32909SOL    HW2  735  10.192   8.049   0.341
32910SOL     OW  736   6.179   3.122   7.166
32910SOL    HW1  737   6.177   3.216   7.183
32910SOL    HW2  738   6.269   3.096   7.184
32911SOL     OW  739  10.624   1.806   9.988
32911SOL    HW1  740  10.633   1.901   9.995
32911SOL    HW2  741  10.530   1.790   9.989
32912SOL     OW  742   8.789   0.654   0.295
32912SOL    HW1  743   8.810   0.564   0.269
32912SOL    HW2  744   8.701   0.669   0.261
32913SOL     OW  745   7.123   3.632   8.260
32913SOL    HW1  746   7.133   3.635   8.165
32913SOL    HW2  747   7.144   3.720   8.289
32914SOL     OW  748  10.383   8.110   0.570
32914SOL    HW1  749  10.311   8.109   0.633
32914SOL    HW2  750  10.343   8.140   0.488
32915SOL     OW  751   9.023   2.972   8.903
32915SOL    HW1  752   9.118   2.982   8.905
32915SOL    HW2  753   9.000   2.943   8.991
32916SOL     OW  754   5.897   3.392   1.167
32916SOL    HW1  755   5.891   3.298   1.150
32916SOL    HW2  756   5.823   3.429   1.119
32917SOL     OW  757   6.807   0.032   4.608
32917SOL    HW1  758   6.867   0.094   4.566
32917SOL    HW2  759   6.831   0.034   4.700
32918SOL     OW  760   5.935   2.697   4.348
32918SOL    HW1  761   5.937   2.662   4.437
32918SOL    HW2  762   5.890   2.630   4.297
32919SOL     OW  763   0.803   3.846  10.432
32919SOL    HW1  764   0.710   3.863  10.418
32919SOL    HW2  765   0.843   3.861  10.346
32920SOL     OW  766   7.516   5.418   3.199
32920SOL    HW1  767   7.503   5.326   3.175
32920SOL    HW2  768   7.428   5.455   3.199
32921SOL     OW  769   8.062   1.164   2.803
32921SOL    HW1  770   8.047   1.117   2.721
32921SOL    HW2  771   8.152   1.197   2.795
32922SOL     OW  772   7.184   2.291   2.626
32922SOL    HW1  773   7.278   2.271   2.619
32922SOL    HW2  774   7.144   2.238   2.557
32923SOL     OW  775  10.314   7.506   4.038
32923SOL    HW1  776  10.297   7.452   3.961
32923SOL    HW2  777  10.231   7.550   4.055
32924SOL     OW  778   7.439   3.273   3.157
32924SOL    HW1  779   7.364   3.286   3.215
32924SOL    HW2  780   7.491   3.352   3.167
32925SOL     OW  781   9.430   4.804   0.368
32925SOL    HW1  782   9.447   4.839   0.455
32925SOL    HW2  783   9.394   4.878   0.319
32926SOL     OW  784   1.002   4.297   0.485
32926SOL    HW1  785   0.933   4.237   0.514
32926SOL    HW2  786   0.955   4.374   0.453
32927SOL     OW  787   0.420   6.197   3.867
32927SOL    HW1  788   0.384   6.131   3.926
32927SOL    HW2  789   0.419   6.278   3.917
32928SOL     OW  790  10.014   5.065   6.880
32928SOL    HW1  791  10.002   5.143   6.934
32928SOL    HW2  792   9.951   5.002   6.915
32929SOL     OW  793   2.982   7.738   9.504
32929SOL    HW1  794   2.954   7.656   9.462
32929SOL    HW2  795   3.014   7.711   9.590
32930SOL     OW  796   8.775   0.986   4.048
32930SOL    HW1  797   8.809   1.038   3.975
32930SOL    HW2  798   8.680   0.984   4.034
32931SOL     OW  799  11.071   8.166   9.508
32931SOL    HW1  800  11.156   8.174   9.464
32931SOL    HW2  801  11.054   8.253   9.543
32932SOL     OW  802   3.016   1.841   4.347
32932SOL    HW1  803   3.009   1.911   4.412
32932SOL    HW2  804   2.944   1.857   4.286
32933SOL     OW  805  10.141   9.611   0.013
32933SOL    HW1  806  10.180   9.543   0.068
32933SOL    HW2  807  10.211   9.676   0.003
32934SOL     OW  808   3.488   4.005   0.930
32934SOL    HW1  809   3.501   3.947   0.854
32934SOL    HW2  810   3.394   4.022   0.931
32935SOL     OW  811   7.317   6.142   9.874
32935SOL    HW1  812   7.276   6.204   9.934
32935SOL    HW2  813   7.410   6.166   9.874
32936SOL     OW  814   9.040   8.917   7.898
32936SOL    HW1  815   8.962   8.886   7.852
32936SOL    HW2  816   9.091   8.962   7.831
32937SOL     OW  817   6.453   6.245   1.449
32937SOL    HW1  818   6.384   6.192   1.410
32937SOL    HW2  819   6.527   6.235   1.388
32938SOL     OW  820   8.895   6.135   7.842
32938SOL    HW1  821   8.810   6.156   7.881
32938SOL    HW2  822   8.954   6.124   7.916
32939SOL     OW  823   2.992   6.445   9.219
32939SOL    HW1  824   3.040   6.468   9.298
32939SOL    HW2  825   2.914   6.500   9.221
32940SOL     OW  826   1.107   7.194   3.196
32940SOL    HW1  827   1.145   7.279   3.176
32940SOL    HW2  828   1.062   7.207   3.279
32941SOL     OW  829   1.705   6.729   3.697
32941SOL    HW1  830   1.611   6.716   3.688
32941SOL    HW2  831   1.743   6.677   3.626
32942SOL     OW  832   0.024   6.135   0.153
32942SOL    HW1  833   0.062   6.197   0.215
32942SOL    HW2  834   0.025   6.180   0.069
32943SOL     OW  835   4.526   3.534  10.846
32943SOL    HW1  836   4.613   3.544  10.807
32943SOL    HW2  837   4.467   3.577  10.784
32944SOL     OW  838   3.826   4.529   3.436
32944SOL    HW1  839   3.735   4.517   3.462
32944SOL    HW2  840   3.874   4.460   3.482
32945SOL     OW  841   7.176   4.113  10.030
32945SOL    HW1  842   7.172   4.205  10.056
32945SOL    HW2  843   7.110   4.069  10.084
32946SOL     OW  844  10.580   5.882   3.230
32946SOL    HW1  845  10.637   5.886   3.306
32946SOL    HW2  846  10.636   5.848   3.160
32947SOL     OW  847   5.387   8.718   5.148
32947SOL    HW1  848   5.375   8.796   5.202
32947SOL    HW2  849   5.314   8.720   5.086
32948SOL     OW  850   9.386   4.549   3.153
32948SOL    HW1  851   9.348   4.574   3.068
32948SOL    HW2  852   9.386   4.630   3.204
32949SOL     OW  853   9.587   3.465   4.059
32949SOL    HW1  854   9.681   3.460   4.043
32949SOL    HW2  855   9.578   3.453   4.153
32950SOL     OW  856   8.911   4.046   5.443
32950SOL    HW1  857   8.945   3.993   5.515
32950SOL    HW2  858   8.900   3.983   5.371
32951SOL     OW  859   1.636  10.650  10.625
32951SOL    HW1  860   1.581  10.585  10.581
32951SOL    HW2  861   1.716  10.653  10.572
32952SOL     OW  862   2.828   8.871   3.993
32952SOL    HW1  863   2.776   8.860   4.072
32952SOL    HW2  864   2.808   8.960   3.964
32953SOL     OW  865   4.687   7.213   9.254
32953SOL    HW1  866   4.638   7.286   9.291
32953SOL    HW2  867   4.776   7.246   9.244
32954SOL     OW  868   1.021   8.130   5.882
32954SOL    HW1  869   1.072   8.199   5.840
32954SOL    HW2  870   0.991   8.168   5.964
32955SOL     OW  871   0.398   8.161   1.439
32955SOL    HW1  872   0.425   8.071   1.457
32955SOL    HW2  873   0.331   8.179   1.505
32956SOL     OW  874   6.773   4.278   4.880
32956SOL    HW1  875   6.702   4.330   4.843
32956SOL    HW2  876   6.765   4.193   4.837
32957SOL     OW  877   3.296   2.888   1.081
32957SOL    HW1  878   3.212   2.871   1.039
32957SOL    HW2  879   3.280   2.874   1.174
32958SOL     OW  880   0.474   9.996   5.454
32958SOL    HW1  881   0.407  10.024   5.391
32958SOL    HW2  882   0.426   9.947   5.520
32959SOL     OW  883   6.840  10.337   9.600
32959SOL    HW1  884   6.902  10.265   9.586
32959SOL    HW2  885   6.806  10.357   9.512
32960SOL     OW  886   8.910   8.069   3.289
32960SOL    HW1  887   8.998   8.070   3.252
32960SOL    HW2  888   8.883   7.977   3.284
32961SOL     OW  889   9.549   4.048   5.716
32961SOL    HW1  890   9.624   4.079   5.665
32961SOL    HW2  891   9.575   3.960   5.745
32962SOL     OW  892   8.368   4.144   8.110
32962SOL    HW1  893   8.341   4.189   8.190
32962SOL    HW2  894   8.319   4.061   8.111
32963SOL     OW  895   5.418   0.224   9.664
32963SOL    HW1  896   5.453   0.223   9.575
32963SOL    HW2  897   5.494   0.209   9.720
32964SOL     OW  898  10.796   8.906   4.428
32964SOL    HW1  899  10.734   8.955   4.482
32964SOL    HW2  900  10.797   8.818   4.466
32965SOL     OW  901   3.368   1.548   5.557
32965SOL    HW1  902   3.369   1.469   5.612
32965SOL    HW2  903   3.435   1.531   5.490
32966SOL     OW  904   6.836   0.533   2.677
32966SOL    HW1  905   6.881   0.525   2.761
32966SOL    HW2  906   6.776   0.606   2.688
32967SOL     OW  907   8.072   8.258   6.179
32967SOL    HW1  908   7.992   8.275   6.228
32967SOL    HW2  909   8.050   8.280   6.088
32968SOL     OW  910  11.048   7.176   5.552
32968SOL    HW1  911  10.973   7.231   5.531
32968SOL    HW2  912  11.013   7.086   5.550
32969SOL     OW  913   0.034   6.913   2.350
32969SOL    HW1  914  -0.062   6.908   2.348
32969SOL    HW2  915   0.058   6.933   2.259
32970SOL     OW  916   4.034   0.244   5.567
32970SOL    HW1  917   4.014   0.256   5.474
32970SOL    HW2  918   4.069   0.155   5.572
32971SOL     OW  919  10.144   8.074  10.160
32971SOL    HW1  920  10.135   8.060  10.065
32971SOL    HW2  921  10.125   7.988  10.199
32972SOL     OW  922   0.463   8.197   3.171
32972SOL    HW1  923   0.458   8.274   3.228
32972SOL    HW2  924   0.388   8.143   3.196
32973SOL     OW  925   7.921   2.329  10.927
32973SOL    HW1  926   7.916   2.234  10.911
32973SOL    HW2  927   7.839   2.364  10.892
32974SOL     OW  928   0.921   7.291   5.315
32974SOL    HW1  929   0.951   7.286   5.224
32974SOL    HW2  930   0.940   7.381   5.342
32975SOL     OW  931   1.508   7.493  10.645
32975SOL    HW1  932   1.432   7.477  10.700
32975SOL    HW2  933   1.576   7.523  10.705
32976SOL     OW  934   7.876   9.430  10.707
32976SOL    HW1  935   7.914   9.504  10.660
32976SOL    HW2  936   7.839   9.468  10.786
32977SOL     OW  937   3.272   7.187   4.154
32977SOL    HW1  938   3.244   7.191   4.062
32977SOL    HW2  939   3.367   7.198   4.151
32978SOL     OW  940   1.092   9.048   9.902
32978SOL    HW1  941   1.015   8.995   9.881
32978SOL    HW2  942   1.100   9.043   9.997
32979SOL     OW  943   3.850   2.869   1.809
32979SOL    HW1  944   3.763   2.895   1.781
32979SOL    HW2  945   3.885   2.946   1.854
32980SOL     OW  946   8.089   4.029   3.274
32980SOL    HW1  947   8.123   4.070   3.353
32980SOL    HW2  948   8.166   3.990   3.232
32981SOL     OW  949   4.661   3.884   1.667
32981SOL    HW1  950   4.583   3.934   1.643
32981SOL    HW2  951   4.734   3.933   1.629
32982SOL     OW  952   8.874   3.894   3.856
32982SOL    HW1  953   8.829   3.973   3.884
32982SOL    HW2  954   8.937   3.876   3.926
32983SOL     OW  955   9.771   4.537   3.252
32983SOL    HW1  956   9.742   4.472   3.315
32983SOL    HW2  957   9.854   4.502   3.219
32984SOL     OW  958   6.158   8.203   1.874
32984SOL    HW1  959   6.076   8.161   1.901
32984SOL    HW2  960   6.220   8.183   1.944
32985SOL     OW  961   2.216   8.177   1.064
32985SOL    HW1  962   2.306   8.180   1.030
32985SOL    HW2  963   2.177   8.101   1.021
32986SOL     OW  964   8.384   8.927   0.233
32986SOL    HW1  965   8.354   9.014   0.256
32986SOL    HW2  966   8.405   8.933   0.140
32987SOL     OW  967   6.214   5.645   2.657
32987SOL    HW1  968   6.184   5.641   2.566
32987SOL    HW2  969   6.276   5.572   2.664
32988SOL     OW  970   6.297   9.424   4.343
32988SOL    HW1  971   6.241   9.353   4.374
32988SOL    HW2  972   6.368   9.429   4.407
32989SOL     OW  973   6.596  10.824   0.018
32989SOL    HW1  974   6.502  10.827   0.000
32989SOL    HW2  975   6.612  10.901   0.073
32990SOL     OW  976   9.268   5.680   0.016
32990SOL    HW1  977   9.257   5.771  -0.011
32990SOL    HW2  978   9.361   5.673   0.040
32991SOL     OW  979   9.484   5.031   5.290
32991SOL    HW1  980   9.457   5.090   5.360
32991SOL    HW2  981   9.422   5.047   5.219
32992SOL     OW  982   0.762   2.642   6.150
32992SOL    HW1  983   0.686   2.623   6.095
32992SOL    HW2  984   0.807   2.558   6.157
32993SOL     OW  985   2.762   4.711   4.015
32993SOL    HW1  986   2.695   4.649   4.044
32993SOL    HW2  987   2.792   4.754   4.095
32994SOL     OW  988   6.045   3.356   4.027
32994SOL    HW1  989   6.006   3.348   3.940
32994SOL    HW2  990   6.139   3.349   4.011
32995SOL     OW  991   7.277   3.777   1.969
32995SOL    HW1  992   7.201   3.729   1.935
32995SOL    HW2  993   7.249   3.809   2.054
32996SOL     OW  994   2.776   6.583   0.908
32996SOL    HW1  995   2.769   6.518   0.837
32996SOL    HW2  996   2.768   6.667   0.863
32997SOL     OW  997   8.770   1.664   0.304
32997SOL    HW1  998   8.855   1.622   0.289
32997SOL    HW2  999   8.782   1.714   0.384
32998SOL     OW 1000   0.167   6.394   8.050
32998SOL    HW1 1001   0.208   6.474   8.082
32998SOL    HW2 1002   0.090   6.381   8.106
32999SOL     OW 1003   6.205   1.735   9.961
32999SOL    HW1 1004   6.161   1.786   9.893
32999SOL    HW2 1005   6.276   1.690   9.915
33000SOL     OW 1006   0.159   5.438   5.937
33000SOL    HW1 1007   0.128   5.515   5.983
33000SOL    HW2 1008   0.195   5.382   6.005
33001SOL     OW 1009   6.064   5.037   8.059
33001SOL    HW1 1010   5.994   5.024   7.995
33001SOL    HW2 1011   6.046   5.123   8.097
33002SOL     OW 1012   7.832   7.813   3.478
33002SOL    HW1 1013   7.813   7.735   3.530
33002SOL    HW2 1014   7.749   7.861   3.476
33003SOL     OW 1015  10.367   8.161   3.635
33003SOL    HW1 1016  10.310   8.134   3.562
33003SOL    HW2 1017  10.436   8.094   3.637
33004SOL     OW 1018   8.511   6.194   4.912
33004SOL    HW1 1019   8.511   6.183   5.007
33004SOL    HW2 1020   8.594   6.155   4.883
33005SOL     OW 1021   7.733   4.491   1.246
33005SOL    HW1 1022   7.790   4.459   1.176
33005SOL    HW2 1023   7.778   4.568   1.280
33006SOL     OW 1024  10.068   4.389   5.078
33006SOL    HW1 1025  10.095   4.416   4.990
33006SOL    HW2 1026  10.067   4.293   5.073
33007SOL     OW 1027   7.553   9.789   8.517
33007SOL    HW1 1028   7.572   9.772   8.425
33007SOL    HW2 1029   7.638   9.783   8.560
33008SOL     OW 1030   8.633   5.188   3.966
33008SOL    HW1 1031   8.578   5.133   3.910
33008SOL    HW2 1032   8.586   5.191   4.049
33009SOL     OW 1033   6.097   5.007  11.088
33009SOL    HW1 1034   6.085   5.062  11.011
33009SOL    HW2 1035   6.156   4.938  11.058
33010SOL     OW 1036  10.938  10.208   5.687
33010SOL    HW1 1037  10.931  10.112   5.680
33010SOL    HW2 1038  10.874  10.232   5.753
33011SOL     OW 1039   9.925   6.155   3.827
33011SOL    HW1 1040   9.929   6.238   3.780
33011SOL    HW2 1041   9.837   6.121   3.809
33012SOL     OW 1042   2.058   4.412   2.472
33012SOL    HW1 1043   1.963   4.403   2.483
33012SOL    HW2 1044   2.085   4.469   2.544
33013SOL     OW 1045   9.319   1.118   7.699
33013SOL    HW1 1046   9.237   1.073   7.716
33013SOL    HW2 1047   9.317   1.137   7.605
33014SOL     OW 1048   3.006   5.008   2.797
33014SOL    HW1 1049   2.981   5.059   2.874
33014SOL    HW2 1050   2.926   4.962   2.770
33015SOL     OW 1051   6.464   6.332   3.167
33015SOL    HW1 1052   6.493   6.333   3.258
33015SOL    HW2 1053   6.369   6.328   3.172
33016SOL     OW 1054  10.091   8.708   0.912
33016SOL    HW1 1055   9.996   8.698   0.903
33016SOL    HW2 1056  10.127   8.661   0.836
33017SOL     OW 1057   8.285   6.360   5.237
33017SOL    HW1 1058   8.311   6.437   5.287
33017SOL    HW2 1059   8.198   6.381   5.203
33018SOL     OW 1060   0.817  10.545   0.382
33018SOL    HW1 1061   0.738  10.598   0.388
33018SOL    HW2 1062   0.787  10.460   0.350
33019SOL     OW 1063   8.657   7.885   1.000
33019SOL    HW1 1064   8.590   7.873   0.932
33019SOL    HW2 1065   8.626   7.833   1.074
33020SOL     OW 1066   9.440   8.741   2.829
33020SOL    HW1 1067   9.439   8.734   2.924
33020SOL    HW2 1068   9.499   8.814   2.810
33021SOL     OW 1069   0.133   0.224   7.545
33021SOL    HW1 1070   0.105   0.132   7.540
33021SOL    HW2 1071   0.053   0.274   7.531
33022SOL     OW 1072   3.881   8.410   1.421
33022SOL    HW1 1073   3.867   8.365   1.337
33022SOL    HW2 1074   3.808   8.382   1.476
33023SOL     OW 1075   5.311   1.301   0.594
33023SOL    HW1 1076   5.316   1.227   0.655
33023SOL    HW2 1077   5.356   1.270   0.515
33024SOL     OW 1078  10.146   5.767   9.071
33024SOL    HW1 1079  10.173   5.836   9.011
33024SOL    HW2 1080  10.202   5.778   9.147
33025SOL     OW 1081   0.036  10.594   7.636
33025SOL    HW1 1082   0.071  10.515   7.594
33025SOL    HW2 1083   0.113  10.642   7.665
33026SOL     OW 1084   1.737   5.057   4.074
33026SOL    HW1 1085   1.662   5.051   4.014
33026SOL    HW2 1086   1.699   5.056   4.161
33027SOL     OW 1087   6.652   0.097  11.016
33027SOL    HW1 1088   6.675   0.018  10.967
33027SOL    HW2 1089   6.579   0.070  11.072
33028SOL     OW 1090  10.975   6.252   5.661
33028SOL    HW1 1091  11.062   6.227   5.692
33028SOL    HW2 1092  10.966   6.207   5.577
33029SOL     OW 1093   3.866   6.827   5.063
33029SOL    HW1 1094   3.806   6.901   5.072
33029SOL    HW2 1095   3.813   6.750   5.085
33030SOL     OW 1096   3.106   7.452   3.564
33030SOL    HW1 1097   3.159   7.521   3.603
33030SOL    HW2 1098   3.136   7.372   3.607
33031SOL     OW 1099   0.077   1.512   1.494
33031SOL    HW1 1100   0.101   1.601   1.517
33031SOL    HW2 1101  -0.016   1.505   1.515
33032SOL     OW 1102   2.429   2.361  11.040
33032SOL    HW1 1103   2.494   2.304  11.082
33032SOL    HW2 1104   2.350   2.307  11.033
33033SOL     OW 1105   5.327   2.671   2.311
33033SOL    HW1 1106   5.298   2.650   2.222
33033SOL    HW2 1107   5.325   2.766   2.315
33034SOL     OW 1108  10.802   2.607   3.486
33034SOL    HW1 1109  10.849   2.580   3.565
33034SOL    HW2 1110  10.836   2.549   3.417
33035SOL     OW 1111   6.652   2.404   0.841
33035SOL    HW1 1112   6.585   2.472   0.840
33035SOL    HW2 1113   6.685   2.403   0.930
33036SOL     OW 1114   9.097   2.974   3.446
33036SOL    HW1 1115   9.053   3.001   3.365
33036SOL    HW2 1116   9.173   2.923   3.416
33037SOL     OW 1117   2.804   4.546   6.343
33037SOL    HW1 1118   2.797   4.451   6.335
33037SOL    HW2 1119   2.723   4.579   6.304
33038SOL     OW 1120   8.429  10.323   4.568
33038SOL    HW1 1121   8.482  10.398   4.595
33038SOL    HW2 1122   8.472  10.291   4.488
33039SOL     OW 1123   1.244   5.175   3.194
33039SOL    HW1 1124   1.313   5.197   3.256
33039SOL    HW2 1125   1.218   5.259   3.156
33040SOL     OW 1126   8.108   8.081   9.776
33040SOL    HW1 1127   8.145   8.166   9.752
33040SOL    HW2 1128   8.024   8.101   9.816
33041SOL     OW 1129   1.244  10.347   5.738
33041SOL    HW1 1130   1.174  10.282   5.742
33041SOL    HW2 1131   1.313  10.311   5.794
33042SOL     OW 1132   0.016  10.263   8.694
33042SOL    HW1 1133   0.103  10.233   8.669
33042SOL    HW2 1134  -0.024  10.187   8.737
33043SOL     OW 1135   9.500   1.033   3.871
33043SOL    HW1 1136   9.463   1.067   3.789
33043SOL    HW2 1137   9.519   1.111   3.923
33044SOL     OW 1138   7.230   1.912   8.823
33044SOL    HW1 1139   7.286   1.873   8.755
33044SOL    HW2 1140   7.290   1.966   8.875
33045SOL     OW 1141   9.510   1.843   2.834
33045SOL    HW1 1142   9.592   1.824   2.788
33045SOL    HW2 1143   9.512   1.786   2.911
33046SOL     OW 1144   7.522  10.521   4.223
33046SOL    HW1 1145   7.533  10.607   4.181
33046SOL    HW2 1146   7.455  10.477   4.170
33047SOL     OW 1147   8.386   1.005   9.417
33047SOL    HW1 1148   8.422   0.920   9.445
33047SOL    HW2 1149   8.455   1.043   9.363
33048SOL     OW 1150   3.461   3.329  10.757
33048SOL    HW1 1151   3.542   3.299  10.799
33048SOL    HW2 1152   3.391   3.292  10.811
33049SOL     OW 1153   0.061   6.423   5.419
33049SOL    HW1 1154   0.019   6.509   5.419
33049SOL    HW2 1155  -0.012   6.361   5.421
33050SOL     OW 1156   9.300   5.662   5.752
33050SOL    HW1 1157   9.329   5.752   5.739
33050SOL    HW2 1158   9.355   5.610   5.692
33051SOL     OW 1159   0.366   3.022   9.440
33051SOL    HW1 1160   0.456   3.010   9.410
33051SOL    HW2 1161   0.336   3.101   9.395
33052SOL     OW 1162   1.331   5.961   3.288
33052SOL    HW1 1163   1.254   5.907   3.272
33052SOL    HW2 1164   1.346   6.006   3.205
33053SOL     OW 1165   8.599   9.974   7.734
33053SOL    HW1 1166   8.614   9.926   7.652
33053SOL    HW2 1167   8.534   9.921   7.780
33054SOL     OW 1168   8.491   6.064   0.317
33054SOL    HW1 1169   8.397   6.052   0.328
33054SOL    HW2 1170   8.516   6.124   0.386
33055SOL     OW 1171   8.373   6.260   9.123
33055SOL    HW1 1172   8.346   6.341   9.080
33055SOL    HW2 1173   8.428   6.215   9.058
33056SOL     OW 1174   9.226   0.738   6.179
33056SOL    HW1 1175   9.250   0.668   6.240
33056SOL    HW2 1176   9.283   0.811   6.203
33057SOL     OW 1177   3.292   9.588  10.277
33057SOL    HW1 1178   3.257   9.515  10.225
33057SOL    HW2 1179   3.376   9.609  10.235
33058SOL     OW 1180   7.209   5.496   6.205
33058SOL    HW1 1181   7.214   5.482   6.110
33058SOL    HW2 1182   7.118   5.520   6.221
33059SOL     OW 1183  11.090   8.456  10.503
33059SOL    HW1 1184  11.053   8.368  10.491
33059SOL    HW2 1185  11.021   8.515  10.474
33060SOL     OW 1186   8.160   0.082   7.276
33060SOL    HW1 1187   8.151   0.034   7.358
33060SOL    HW2 1188   8.093   0.045   7.219
33061SOL     OW 1189   8.930   5.413  10.496
33061SOL    HW1 1190   8.974   5.328  10.495
33061SOL    HW2 1191   8.970   5.460  10.569
33062SOL     OW 1192   5.090   8.977   4.673
33062SOL    HW1 1193   5.054   9.040   4.734
33062SOL    HW2 1194   5.181   9.004   4.660
33063SOL     OW 1195  10.165  11.057   3.035
33063SOL    HW1 1196  10.230  10.987   3.037
33063SOL    HW2 1197  10.182  11.108   3.114
33064SOL     OW 1198   2.642   7.099   0.813
33064SOL    HW1 1199   2.559   7.053   0.825
33064SOL    HW2 1200   2.671   7.121   0.901
33065SOL     OW 1201   2.263   5.589   0.938
33065SOL    HW1 1202   2.188   5.554   0.986
33065SOL    HW2 1203   2.332   5.523   0.949
33066SOL     OW 1204   0.808   7.329   8.297
33066SOL    HW1 1205   0.845   7.287   8.374
33066SOL    HW2 1206   0.849   7.415   8.294
33067SOL     OW 1207   9.344  10.283   2.802
33067SOL    HW1 1208   9.393  10.331   2.735
33067SOL    HW2 1209   9.411  10.254   2.864
33068SOL     OW 1210  10.762   6.992   9.412
33068SOL    HW1 1211  10.730   7.038   9.489
33068SOL    HW2 1212  10.691   6.932   9.389
33069SOL     OW 1213   8.051   8.077   4.570
33069SOL    HW1 1214   8.062   7.998   4.517
33069SOL    HW2 1215   8.139   8.115   4.575
33070SOL     OW 1216   1.335   1.921   8.193
33070SOL    HW1 1217   1.406   1.934   8.256
33070SOL    HW2 1218   1.318   2.008   8.157
33071SOL     OW 1219   7.795   4.184   2.069
33071SOL    HW1 1220   7.816   4.205   2.160
33071SOL    HW2 1221   7.740   4.106   2.074
33072SOL     OW 1222   7.203   9.224   6.248
33072SOL    HW1 1223   7.216   9.228   6.153
33072SOL    HW2 1224   7.149   9.146   6.261
33073SOL     OW 1225   9.609   6.816   4.428
33073SOL    HW1 1226   9.615   6.860   4.343
33073SOL    HW2 1227   9.618   6.886   4.492
33074SOL     OW 1228   9.338   2.582   7.810
33074SOL    HW1 1229   9.251   2.617   7.830
33074SOL    HW2 1230   9.398   2.636   7.861
33075SOL     OW 1231   9.768   8.611   0.369
33075SOL    HW1 1232   9.692   8.555   0.353
33075SOL    HW2 1233   9.837   8.549   0.394
33076SOL     OW 1234   8.785   6.725   4.240
33076SOL    HW1 1235   8.753   6.667   4.170
33076SOL    HW2 1236   8.864   6.681   4.272
33077SOL     OW 1237   0.068   9.069   4.439
33077SOL    HW1 1238   0.124   8.991   4.447
33077SOL    HW2 1239  -0.004   9.053   4.500
33078SOL     OW 1240   0.311   7.995   7.777
33078SOL    HW1 1241   0.301   8.089   7.790
33078SOL    HW2 1242   0.389   7.986   7.722
33079SOL     OW 1243   1.004   0.561   4.149
33079SOL    HW1 1244   1.034   0.534   4.236
33079SOL    HW2 1245   0.957   0.643   4.164
33080SOL     OW 1246   5.983   9.260   6.299
33080SOL    HW1 1247   5.966   9.334   6.357
33080SOL    HW2 1248   5.899   9.243   6.257
33081SOL     OW 1249  10.168  10.732   7.429
33081SOL    HW1 1250  10.234  10.795   7.400
33081SOL    HW2 1251  10.203  10.647   7.402
33082SOL     OW 1252   2.474   4.323   9.536
33082SOL    HW1 1253   2.555   4.340   9.488
33082SOL    HW2 1254   2.498   4.256   9.600
33083SOL     OW 1255   4.921   7.629   4.909
33083SOL    HW1 1256   4.970   7.707   4.934
33083SOL    HW2 1257   4.941   7.617   4.816
33084SOL     OW 1258   5.934   4.199   5.405
33084SOL    HW1 1259   5.876   4.125   5.425
33084SOL    HW2 1260   5.993   4.165   5.337
33085SOL     OW 1261   4.184   1.049   1.151
33085SOL    HW1 1262   4.202   0.960   1.181
33085SOL    HW2 1263   4.270   1.084   1.129
33086SOL     OW 1264   7.818   6.604   8.743
33086SOL    HW1 1265   7.863   6.629   8.823
33086SOL    HW2 1266   7.859   6.521   8.717
33087SOL     OW 1267   8.522   7.220   5.513
33087SOL    HW1 1268   8.437   7.180   5.528
33087SOL    HW2 1269   8.585   7.153   5.541
33088SOL     OW 1270   5.204   6.657   6.050
33088SOL    HW1 1271   5.112   6.638   6.069
33088SOL    HW2 1272   5.228   6.725   6.113
33089SOL     OW 1273   6.642   2.150   0.395
33089SOL    HW1 1274   6.594   2.067   0.391
33089SOL    HW2 1275   6.648   2.170   0.488
33090SOL     OW 1276   5.336  10.824   4.257
33090SOL    HW1 1277   5.338  10.793   4.166
33090SOL    HW2 1278   5.296  10.752   4.306
33091SOL     OW 1279   7.927   9.556   6.008
33091SOL    HW1 1280   7.849   9.532   5.958
33091SOL    HW2 1281   7.990   9.486   5.988
33092SOL     OW 1282   3.132   9.540   1.146
33092SOL    HW1 1283   3.162   9.451   1.166
33092SOL    HW2 1284   3.176   9.562   1.063
33093SOL     OW 1285   0.210   0.295   4.653
33093SOL    HW1 1286   0.223   0.363   4.587
33093SOL    HW2 1287   0.157   0.229   4.608
33094SOL     OW 1288   5.301   1.875   2.797
33094SOL    HW1 1289   5.393   1.886   2.773
33094SOL    HW2 1290   5.282   1.949   2.853
33095SOL     OW 1291   9.750   8.298   1.601
33095SOL    HW1 1292   9.716   8.208   1.597
33095SOL    HW2 1293   9.815   8.296   1.671
33096SOL     OW 1294   9.139  10.466   5.525
33096SOL    HW1 1295   9.162  10.421   5.606
33096SOL    HW2 1296   9.065  10.417   5.490
33097SOL     OW 1297   0.622   8.903   4.975
33097SOL    HW1 1298   0.585   8.979   5.018
33097SOL    HW2 1299   0.703   8.935   4.935
33098SOL     OW 1300   6.429   7.505   6.460
33098SOL    HW1 1301   6.399   7.577   6.514
33098SOL    HW2 1302   6.386   7.428   6.497
33099SOL     OW 1303   6.194   6.329   3.342
33099SOL    HW1 1304   6.219   6.421   3.338
33099SOL    HW2 1305   6.165   6.316   3.432
33100SOL     OW 1306   7.467   3.594   5.584
33100SOL    HW1 1307   7.545   3.550   5.617
33100SOL    HW2 1308   7.446   3.659   5.650
33101SOL     OW 1309   0.313   5.473  11.085
33101SOL    HW1 1310   0.400   5.441  11.062
33101SOL    HW2 1311   0.253   5.410  11.045
33102SOL     OW 1312  10.984   3.681   6.877
33102SOL    HW1 1313  10.940   3.610   6.924
33102SOL    HW2 1314  11.075   3.653   6.871
33103SOL     OW 1315   8.564   1.329   1.762
33103SOL    HW1 1316   8.573   1.420   1.790
33103SOL    HW2 1317   8.624   1.280   1.818
33104SOL     OW 1318   4.970   1.178   9.902
33104SOL    HW1 1319   4.961   1.262   9.946
33104SOL    HW2 1320   4.897   1.125   9.935
33105SOL     OW 1321   6.013   2.240   2.797
33105SOL    HW1 1322   5.960   2.197   2.864
33105SOL    HW2 1323   6.073   2.172   2.766
33106SOL     OW 1324   0.750   0.818   1.382
33106SOL    HW1 1325   0.679   0.780   1.331
33106SOL    HW2 1326   0.713   0.831   1.469
33107SOL     OW 1327  10.848   7.974   4.991
33107SOL    HW1 1328  10.855   7.993   4.897
33107SOL    HW2 1329  10.839   8.059   5.033
33108SOL     OW 1330   6.770   8.803   8.305
33108SOL    HW1 1331   6.703   8.830   8.242
33108SOL    HW2 1332   6.815   8.884   8.328
33109SOL     OW 1333   9.746   7.276   6.276
33109SOL    HW1 1334   9.832   7.290   6.235
33109SOL    HW2 1335   9.724   7.360   6.314
33110SOL     OW 1336   8.296   4.141   3.575
33110SOL    HW1 1337   8.236   4.068   3.593
33110SOL    HW2 1338   8.327   4.169   3.661
33111SOL     OW 1339   4.946   3.432   5.662
33111SOL    HW1 1340   4.980   3.422   5.751
33111SOL    HW2 1341   4.942   3.526   5.648
33112SOL     OW 1342   1.817   4.149   5.190
33112SOL    HW1 1343   1.900   4.159   5.142
33112SOL    HW2 1344   1.780   4.237   5.193
33113SOL     OW 1345   2.287   6.548   3.543
33113SOL    HW1 1346   2.257   6.557   3.633
33113SOL    HW2 1347   2.213   6.509   3.496
33114SOL     OW 1348   8.466   9.278   5.868
33114SOL    HW1 1349   8.383   9.325   5.857
33114SOL    HW2 1350   8.502   9.311   5.950
33115SOL     OW 1351   7.613  10.024   5.361
33115SOL    HW1 1352   7.558  10.089   5.318
33115SOL    HW2 1353   7.685  10.074   5.399
33116SOL     OW 1354   7.271  10.138   5.250
33116SOL    HW1 1355   7.200  10.153   5.313
33116SOL    HW2 1356   7.227  10.105   5.171
33117SOL     OW 1357   9.236   7.410   5.417
33117SOL    HW1 1358   9.307   7.350   5.441
33117SOL    HW2 1359   9.280   7.485   5.378
33118SOL     OW 1360   6.687   1.339   1.889
33118SOL    HW1 1361   6.674   1.428   1.858
33118SOL    HW2 1362   6.609   1.320   1.941
33119SOL     OW 1363   0.815   9.552   5.386
33119SOL    HW1 1364   0.793   9.615   5.318
33119SOL    HW2 1365   0.785   9.468   5.351
33120SOL     OW 1366   4.745  10.268   1.690
33120SOL    HW1 1367   4.689  10.340   1.661
33120SOL    HW2 1368   4.714  10.247   1.778
33121SOL     OW 1369   1.586   7.434   1.036
33121SOL    HW1 1370   1.519   7.410   0.971
33121SOL    HW2 1371   1.620   7.518   1.005
33122SOL     OW 1372   6.005  11.076   4.104
33122SOL    HW1 1373   6.042  11.058   4.017
33122SOL    HW2 1374   5.990  11.171   4.104
33123SOL     OW 1375   7.419   8.195   7.884
33123SOL    HW1 1376   7.369   8.271   7.913
33123SOL    HW2 1377   7.417   8.200   7.788
33124SOL     OW 1378   7.078   2.524   2.363
33124SOL    HW1 1379   7.172   2.531   2.382
33124SOL    HW2 1380   7.071   2.542   2.269
33125SOL     OW 1381   0.260   8.679   6.910
33125SOL    HW1 1382   0.296   8.754   6.957
33125SOL    HW2 1383   0.327   8.611   6.918
33126SOL     OW 1384   0.605   8.497   4.684
33126SOL    HW1 1385   0.636   8.406   4.676
33126SOL    HW2 1386   0.684   8.550   4.670
33127SOL     OW 1387   7.661   6.816   5.717
33127SOL    HW1 1388   7.748   6.809   5.756
33127SOL    HW2 1389   7.677   6.837   5.625
33128SOL     OW 1390   0.605   4.307   0.680
33128SOL    HW1 1391   0.595   4.272   0.768
33128SOL    HW2 1392   0.665   4.245   0.637
33129SOL     OW 1393   6.781   9.994   9.538
33129SOL    HW1 1394   6.871   9.963   9.551
33129SOL    HW2 1395   6.762  10.047   9.615
33130SOL     OW 1396  10.352   7.013   3.206
33130SOL    HW1 1397  10.297   7.017   3.284
33130SOL    HW2 1398  10.306   7.066   3.141
33131SOL     OW 1399   3.815   2.520   6.709
33131SOL    HW1 1400   3.877   2.577   6.755
33131SOL    HW2 1401   3.848   2.431   6.725
33132SOL     OW 1402   7.151   9.988   5.047
33132SOL    HW1 1403   7.077   9.941   5.084
33132SOL    HW2 1404   7.149   9.966   4.954
33133SOL     OW 1405  10.618   4.602   4.092
33133SOL    HW1 1406  10.580   4.557   4.168
33133SOL    HW2 1407  10.560   4.579   4.019
33134SOL     OW 1408   0.613   9.064   4.273
33134SOL    HW1 1409   0.640   9.073   4.364
33134SOL    HW2 1410   0.548   9.133   4.260
33135SOL     OW 1411   1.140   7.009   5.249
33135SOL    HW1 1412   1.084   7.077   5.285
33135SOL    HW2 1413   1.182   7.049   5.173
33136SOL     OW 1414   1.156   5.178   6.475
33136SOL    HW1 1415   1.175   5.235   6.400
33136SOL    HW2 1416   1.203   5.097   6.455
33137SOL     OW 1417  10.909   0.656  10.626
33137SOL    HW1 1418  10.881   0.746  10.643
33137SOL    HW2 1419  10.851   0.625  10.556
33138SOL     OW 1420   9.026   3.153   5.479
33138SOL    HW1 1421   9.090   3.206   5.431
33138SOL    HW2 1422   9.004   3.082   5.418
33139SOL     OW 1423   8.300   0.594   3.155
33139SOL    HW1 1424   8.266   0.547   3.079
33139SOL    HW2 1425   8.242   0.569   3.227
33140SOL     OW 1426   9.031   8.924   8.163
33140SOL    HW1 1427   9.055   8.834   8.185
33140SOL    HW2 1428   9.058   8.933   8.071
33141SOL     OW 1429   6.067   5.300   1.542
33141SOL    HW1 1430   6.045   5.382   1.586
33141SOL    HW2 1431   6.025   5.232   1.595
33142SOL     OW 1432   0.420   6.592  10.725
33142SOL    HW1 1433   0.428   6.635  10.639
33142SOL    HW2 1434   0.422   6.664  10.788
33143SOL     OW 1435   4.032  10.038   4.979
33143SOL    HW1 1436   4.031   9.973   5.049
33143SOL    HW2 1437   4.070  10.116   5.019
33144SOL     OW 1438   1.134   3.624   0.789
33144SOL    HW1 1439   1.221   3.593   0.762
33144SOL    HW2 1440   1.150   3.710   0.826
33145SOL     OW 1441   7.097   9.043   8.009
33145SOL    HW1 1442   7.007   9.050   8.040
33145SOL    HW2 1443   7.121   9.132   7.983
33146SOL     OW 1444   5.418   9.304   5.093
33146SOL    HW1 1445   5.484   9.247   5.053
33146SOL    HW2 1446   5.339   9.250   5.097
33147SOL     OW 1447   5.860   4.138   2.225
33147SOL    HW1 1448   5.886   4.206   2.287
33147SOL    HW2 1449   5.906   4.160   2.144
33148SOL     OW 1450  10.315   4.666   7.779
33148SOL    HW1 1451  10.393   4.708   7.814
33148SOL    HW2 1452  10.274   4.732   7.724
33149SOL     OW 1453   5.711   6.645   6.888
33149SOL    HW1 1454   5.703   6.715   6.824
33149SOL    HW2 1455   5.668   6.570   6.846
33150SOL     OW 1456  10.020   7.544   9.843
33150SOL    HW1 1457  10.040   7.463   9.890
33150SOL    HW2 1458  10.093   7.554   9.781
33151SOL     OW 1459   1.249   5.777   2.780
33151SOL    HW1 1460   1.242   5.868   2.752
33151SOL    HW2 1461   1.315   5.738   2.721
33152SOL     OW 1462   8.298   3.798   8.905
33152SOL    HW1 1463   8.258   3.858   8.967
33152SOL    HW2 1464   8.392   3.802   8.923
33153SOL     OW 1465   8.868   9.528   3.424
33153SOL    HW1 1466   8.915   9.466   3.480
33153SOL    HW2 1467   8.925   9.539   3.347
33154SOL     OW 1468  10.343   1.668  10.421
33154SOL    HW1 1469  10.285   1.743  10.408
33154SOL    HW2 1470  10.355   1.632  10.333
33155SOL     OW 1471   5.850   0.835   0.292
33155SOL    HW1 1472   5.930   0.855   0.341
33155SOL    HW2 1473   5.867   0.869   0.204
33156SOL     OW 1474  10.529   5.499   7.247
33156SOL    HW1 1475  10.506   5.586   7.216
33156SOL    HW2 1476  10.602   5.472   7.190
33157SOL     OW 1477   0.966   5.457   4.511
33157SOL    HW1 1478   0.963   5.377   4.564
33157SOL    HW2 1479   1.036   5.441   4.448
33158SOL     OW 1480   8.915   5.476   1.577
33158SOL    HW1 1481   8.878   5.556   1.539
33158SOL    HW2 1482   8.915   5.413   1.504
33159SOL     OW 1483   7.015  10.859   0.402
33159SOL    HW1 1484   7.042  10.920   0.333
33159SOL    HW2 1485   7.091  10.851   0.459
33160SOL     OW 1486   8.978   2.699   8.803
33160SOL    HW1 1487   8.950   2.698   8.711
33160SOL    HW2 1488   9.005   2.789   8.819
33161SOL     OW 1489  10.135   5.651   7.524
33161SOL    HW1 1490  10.070   5.654   7.454
33161SOL    HW2 1491  10.180   5.567   7.512
33162SOL     OW 1492   8.452   1.092   2.839
33162SOL    HW1 1493   8.393   1.166   2.834
33162SOL    HW2 1494   8.532   1.122   2.796
33163SOL     OW 1495   1.479   7.240   1.226
33163SOL    HW1 1496   1.502   7.323   1.185
33163SOL    HW2 1497   1.415   7.263   1.293
33164SOL     OW 1498   5.201   7.021   3.295
33164SOL    HW1 1499   5.241   7.083   3.356
33164SOL    HW2 1500   5.121   7.064   3.266
33165SOL     OW 1501   9.762   7.920   6.480
33165SOL    HW1 1502   9.852   7.938   6.507
33165SOL    HW2 1503   9.728   8.004   6.451
33166SOL     OW 1504   9.967   6.655   6.817
33166SOL    HW1 1505   9.952   6.603   6.738
33166SOL    HW2 1506  10.060   6.678   6.813
33167SOL     OW 1507   8.665   1.900   7.212
33167SOL    HW1 1508   8.751   1.941   7.222
33167SOL    HW2 1509   8.630   1.938   7.131
33168SOL     OW 1510  10.509   8.675   7.439
33168SOL    HW1 1511  10.547   8.759   7.465
33168SOL    HW2 1512  10.415   8.688   7.446
33169SOL     OW 1513   7.912   5.005   4.122
33169SOL    HW1 1514   7.925   4.992   4.028
33169SOL    HW2 1515   7.922   5.099   4.135
33170SOL     OW 1516   1.928   5.754   6.686
33170SOL    HW1 1517   1.969   5.771   6.771
33170SOL    HW2 1518   1.925   5.658   6.680
33171SOL     OW 1519   9.888   7.039   3.464
33171SOL    HW1 1520   9.969   7.031   3.514
33171SOL    HW2 1521   9.904   7.112   3.404
33172SOL     OW 1522   4.676  10.342   1.943
33172SOL    HW1 1523   4.587  10.321   1.970
33172SOL    HW2 1524   4.731  10.300   2.009
33173SOL     OW 1525   9.504   3.453   2.638
33173SOL    HW1 1526   9.583   3.429   2.590
33173SOL    HW2 1527   9.473   3.532   2.595
33174SOL     OW 1528   4.592   2.782   4.183
33174SOL    HW1 1529   4.531   2.736   4.240
33174SOL    HW2 1530   4.537   2.822   4.116
33175SOL     OW 1531   0.066   5.351   8.435
33175SOL    HW1 1532   0.093   5.296   8.509
33175SOL    HW2 1533   0.117   5.431   8.444
33176SOL     OW 1534   0.952   3.589   9.329
33176SOL    HW1 1535   0.914   3.528   9.266
33176SOL    HW2 1536   1.040   3.554   9.346
33177SOL     OW 1537   0.240   7.805   3.377
33177SOL    HW1 1538   0.256   7.797   3.471
33177SOL    HW2 1539   0.326   7.794   3.336
33178SOL     OW 1540   6.843   5.873   4.230
33178SOL    HW1 1541   6.913   5.841   4.287
33178SOL    HW2 1542   6.883   5.945   4.181
33179SOL     OW 1543   4.296   2.765   2.181
33179SOL    HW1 1544   4.225   2.702   2.166
33179SOL    HW2 1545   4.320   2.794   2.093
33180SOL     OW 1546   5.380   6.315   0.636
33180SOL    HW1 1547   5.326   6.377   0.685
33180SOL    HW2 1548   5.461   6.363   0.617
33181SOL     OW 1549   7.963   7.782   0.758
33181SOL    HW1 1550   7.961   7.807   0.850
33181SOL    HW2 1551   7.882   7.818   0.721
33182SOL     OW 1552   1.909   8.132   8.476
33182SOL    HW1 1553   1.817   8.134   8.450
33182SOL    HW2 1554   1.957   8.124   8.393
33183SOL     OW 1555  10.684   9.035   0.479
33183SOL    HW1 1556  10.604   8.997   0.443
33183SOL    HW2 1557  10.730   8.961   0.519
33184SOL     OW 1558   8.057   9.591   8.006
33184SOL    HW1 1559   8.098   9.676   7.991
33184SOL    HW2 1560   8.129   9.528   7.998
33185SOL     OW 1561   5.347   7.118   6.180
33185SOL    HW1 1562   5.252   7.123   6.183
33185SOL    HW2 1563   5.376   7.206   6.156
33186SOL     OW 1564   5.817   2.610   3.715
33186SOL    HW1 1565   5.813   2.629   3.621
33186SOL    HW2 1566   5.744   2.550   3.731
33187SOL     OW 1567   1.329   8.070   5.542
33187SOL    HW1 1568   1.296   7.987   5.576
33187SOL    HW2 1569   1.393   8.099   5.607
33188SOL     OW 1570   6.042   7.500   4.688
33188SOL    HW1 1571   5.960   7.542   4.661
33188SOL    HW2 1572   6.018   7.447   4.764
33189SOL     OW 1573   6.932   2.968   9.122
33189SOL    HW1 1574   6.948   2.916   9.042
33189SOL    HW2 1575   7.017   3.009   9.141
33190SOL     OW 1576   6.646   4.529  11.077
33190SOL    HW1 1577   6.679   4.584  11.006
33190SOL    HW2 1578   6.557   4.506  11.050
33191SOL     OW 1579  10.812   3.960   5.513
33191SOL    HW1 1580  10.883   3.902   5.542
33191SOL    HW2 1581  10.810   3.949   5.418
33192SOL     OW 1582   1.926  10.856   1.411
33192SOL    HW1 1583   1.851  10.893   1.364
33192SOL    HW2 1584   1.902  10.765   1.426
33193SOL     OW 1585   0.067  10.829   4.124
33193SOL    HW1 1586   0.081  10.736   4.108
33193SOL    HW2 1587   0.057  10.836   4.219
33194SOL     OW 1588   8.726   2.624   5.905
33194SOL    HW1 1589   8.657   2.675   5.946
33194SOL    HW2 1590   8.695   2.608   5.816
33195SOL     OW 1591   8.757   1.560  10.020
33195SOL    HW1 1592   8.664   1.543  10.033
33195SOL    HW2 1593   8.760   1.629   9.954
33196SOL     OW 1594   3.145   7.533   0.545
33196SOL    HW1 1595   3.176   7.621   0.523
33196SOL    HW2 1596   3.051   7.543   0.559
33197SOL     OW 1597   5.501   7.086   6.941
33197SOL    HW1 1598   5.467   7.168   6.906
33197SOL    HW2 1599   5.470   7.019   6.879
33198SOL     OW 1600   9.926  10.041   5.035
33198SOL    HW1 1601   9.892  10.007   5.117
33198SOL    HW2 1602   9.957  10.129   5.056
33199SOL     OW 1603   2.217   5.118   7.362
33199SOL    HW1 1604   2.303   5.159   7.362
33199SOL    HW2 1605   2.155   5.190   7.369
33200SOL     OW 1606  10.862   0.398   2.978
33200SOL    HW1 1607  10.936   0.381   2.919
33200SOL    HW2 1608  10.813   0.469   2.936
33201SOL     OW 1609   4.068   8.753   7.733
33201SOL    HW1 1610   3.990   8.700   7.716
33201SOL    HW2 1611   4.088   8.737   7.825
33202SOL     OW 1612  10.428   8.393   9.101
33202SOL    HW1 1613  10.507   8.358   9.143
33202SOL    HW2 1614  10.450   8.395   9.007
33203SOL     OW 1615   2.793   7.153   3.376
33203SOL    HW1 1616   2.742   7.092   3.322
33203SOL    HW2 1617   2.858   7.189   3.316
33204SOL     OW 1618   4.780   3.445   9.273
33204SOL    HW1 1619   4.832   3.425   9.195
33204SOL    HW2 1620   4.696   3.402   9.257
33205SOL     OW 1621  11.013   5.052  10.605
33205SOL    HW1 1622  11.091   5.106  10.594
33205SOL    HW2 1623  10.953   5.082  10.537
33206SOL     OW 1624   6.848  11.020   7.595
33206SOL    HW1 1625   6.776  11.055   7.648
33206SOL    HW2 1626   6.882  11.096   7.548
33207SOL     OW 1627  10.754   9.108  10.480
33207SOL    HW1 1628  10.771   9.086  10.571
33207SOL    HW2 1629  10.834   9.083  10.434
33208SOL     OW 1630   7.787   2.106   9.082
33208SOL    HW1 1631   7.741   2.189   9.073
33208SOL    HW2 1632   7.879   2.128   9.070
33209SOL     OW 1633   8.350   4.478   4.447
33209SOL    HW1 1634   8.406   4.544   4.407
33209SOL    HW2 1635   8.411   4.412   4.481
33210SOL     OW 1636   0.688   9.943   7.410
33210SOL    HW1 1637   0.762   9.929   7.469
33210SOL    HW2 1638   0.629  10.000   7.459
33211SOL     OW 1639   9.765   2.268   7.202
33211SOL    HW1 1640   9.831   2.204   7.230
33211SOL    HW2 1641   9.693   2.257   7.264
33212SOL     OW 1642   5.641   8.377   5.860
33212SOL    HW1 1643   5.729   8.406   5.835
33212SOL    HW2 1644   5.634   8.397   5.953
33213SOL     OW 1645   8.141   7.846   2.533
33213SOL    HW1 1646   8.188   7.922   2.566
33213SOL    HW2 1647   8.054   7.878   2.512
33214SOL     OW 1648   0.409  10.026   3.206
33214SOL    HW1 1649   0.480  10.040   3.268
33214SOL    HW2 1650   0.433  10.079   3.130
33215SOL     OW 1651   2.540  10.432   9.742
33215SOL    HW1 1652   2.512  10.478   9.663
33215SOL    HW2 1653   2.634  10.449   9.746
33216SOL     OW 1654   8.507   2.894  10.043
33216SOL    HW1 1655   8.539   2.807  10.068
33216SOL    HW2 1656   8.579   2.932   9.993
33217SOL     OW 1657  10.561   0.389   0.143
33217SOL    HW1 1658  10.569   0.350   0.056
33217SOL    HW2 1659  10.551   0.482   0.127
33218SOL     OW 1660   4.546   1.170   4.494
33218SOL    HW1 1661   4.601   1.102   4.455
33218SOL    HW2 1662   4.597   1.250   4.484
33219SOL     OW 1663   2.025   5.348   9.525
33219SOL    HW1 1664   2.002   5.397   9.603
33219SOL    HW2 1665   2.031   5.257   9.555
33220SOL     OW 1666  10.361   3.064   1.426
33220SOL    HW1 1667  10.346   3.148   1.469
33220SOL    HW2 1668  10.299   3.004   1.468
33221SOL     OW 1669   0.715   9.269   5.328
33221SOL    HW1 1670   0.801   9.229   5.316
33221SOL    HW2 1671   0.688   9.293   5.239
33222SOL     OW 1672   0.371   3.616   9.113
33222SOL    HW1 1673   0.381   3.696   9.061
33222SOL    HW2 1674   0.460   3.586   9.129
33223SOL     OW 1675   1.761   7.255   0.282
33223SOL    HW1 1676   1.721   7.289   0.201
33223SOL    HW2 1677   1.844   7.217   0.253
33224SOL     OW 1678   0.365   3.380   3.550
33224SOL    HW1 1679   0.297   3.317   3.523
33224SOL    HW2 1680   0.439   3.325   3.575
33225SOL     OW 1681   6.850   0.971   2.844
33225SOL    HW1 1682   6.805   1.049   2.812
33225SOL    HW2 1683   6.845   0.909   2.771
33226SOL     OW 1684   5.318   4.987  10.291
33226SOL    HW1 1685   5.308   5.081  10.300
33226SOL    HW2 1686   5.323   4.955  10.381
33227SOL     OW 1687   0.497   4.551   5.005
33227SOL    HW1 1688   0.421   4.561   4.948
33227SOL    HW2 1689   0.482   4.611   5.077
33228SOL     OW 1690   4.097   3.885   4.321
33228SOL    HW1 1691   4.060   3.963   4.280
33228SOL    HW2 1692   4.142   3.918   4.399
33229SOL     OW 1693   9.978   9.415   5.153
33229SOL    HW1 1694   9.983   9.497   5.201
33229SOL    HW2 1695   9.895   9.420   5.105
33230SOL     OW 1696   6.955   8.966   6.540
33230SOL    HW1 1697   6.927   8.875   6.548
33230SOL    HW2 1698   6.945   9.002   6.628
33231SOL     OW 1699   3.645   4.901   4.059
33231SOL    HW1 1700   3.667   4.953   4.136
33231SOL    HW2 1701   3.558   4.867   4.077
33232SOL     OW 1702   9.341   7.621   5.252
33232SOL    HW1 1703   9.306   7.708   5.271
33232SOL    HW2 1704   9.416   7.611   5.311
33233SOL     OW 1705   6.825   9.044   7.654
33233SOL    HW1 1706   6.872   8.968   7.688
33233SOL    HW2 1707   6.741   9.009   7.624
33234SOL     OW 1708   6.935   7.434  10.279
33234SOL    HW1 1709   6.876   7.483  10.336
33234SOL    HW2 1710   7.022   7.466  10.302
33235SOL     OW 1711   2.099   3.850   5.246
33235SOL    HW1 1712   2.122   3.925   5.300
33235SOL    HW2 1713   2.070   3.888   5.163
33236SOL     OW 1714   0.365   4.526   6.355
33236SOL    HW1 1715   0.321   4.592   6.301
33236SOL    HW2 1716   0.443   4.570   6.388
33237SOL     OW 1717  10.291   4.427   5.697
33237SOL    HW1 1718  10.234   4.503   5.695
33237SOL    HW2 1719  10.260   4.372   5.624
33238SOL     OW 1720   6.482   7.084   3.023
33238SOL    HW1 1721   6.563   7.034   3.034
33238SOL    HW2 1722   6.488   7.121   2.935
33239SOL     OW 1723   6.781   8.849   8.748
33239SOL    HW1 1724   6.699   8.896   8.761
33239SOL    HW2 1725   6.756   8.769   8.702
33240SOL     OW 1726   7.682   8.475   8.123
33240SOL    HW1 1727   7.720   8.398   8.165
33240SOL    HW2 1728   7.588   8.464   8.135
33241SOL     OW 1729   3.291   5.343   5.030
33241SOL    HW1 1730   3.369   5.356   4.976
33241SOL    HW2 1731   3.280   5.425   5.077
33242SOL     OW 1732   4.537   4.282   6.373
33242SOL    HW1 1733   4.631   4.296   6.363
33242SOL    HW2 1734   4.497   4.335   6.304
33243SOL     OW 1735   5.559   4.704   0.850
33243SOL    HW1 1736   5.488   4.716   0.787
33243SOL    HW2 1737   5.573   4.609   0.852
33244SOL     OW 1738  11.093   7.706   3.306
33244SOL    HW1 1739  11.174   7.757   3.303
33244SOL    HW2 1740  11.040   7.749   3.373
33245SOL     OW 1741   5.777   0.424   0.678
33245SOL    HW1 1742   5.787   0.515   0.705
33245SOL    HW2 1743   5.800   0.424   0.585
33246SOL     OW 1744   6.686  10.784   4.740
33246SOL    HW1 1745   6.600  10.817   4.714
33246SOL    HW2 1746   6.719  10.739   4.662
33247SOL     OW 1747  10.184   9.691  10.833
33247SOL    HW1 1748  10.173   9.776  10.875
33247SOL    HW2 1749  10.218   9.712  10.746
33248SOL     OW 1750   2.371   8.212   3.391
33248SOL    HW1 1751   2.330   8.172   3.313
33248SOL    HW2 1752   2.299   8.253   3.438
33249SOL     OW 1753   8.603   7.093   3.332
33249SOL    HW1 1754   8.631   7.091   3.423
33249SOL    HW2 1755   8.680   7.065   3.283
33250SOL     OW 1756   0.233  10.171   0.642
33250SOL    HW1 1757   0.286  10.094   0.619
33250SOL    HW2 1758   0.148  10.154   0.602
33251SOL     OW 1759   8.611   7.597   5.666
33251SOL    HW1 1760   8.522   7.563   5.673
33251SOL    HW2 1761   8.652   7.541   5.599
33252SOL     OW 1762   6.134   5.051   2.586
33252SOL    HW1 1763   6.107   4.960   2.603
33252SOL    HW2 1764   6.052   5.100   2.582
33253SOL     OW 1765   0.289  10.685   9.142
33253SOL    HW1 1766   0.236  10.610   9.116
33253SOL    HW2 1767   0.322  10.721   9.059
33254SOL     OW 1768   7.611   0.245   5.007
33254SOL    HW1 1769   7.534   0.295   5.035
33254SOL    HW2 1770   7.685   0.291   5.046
33255SOL     OW 1771  10.460   3.704   3.658
33255SOL    HW1 1772  10.459   3.784   3.605
33255SOL    HW2 1773  10.485   3.733   3.745
33256SOL     OW 1774   0.156   7.955  10.109
33256SOL    HW1 1775   0.114   7.901  10.176
33256SOL    HW2 1776   0.122   8.043  10.124
33257SOL     OW 1777   7.240   8.307   4.617
33257SOL    HW1 1778   7.184   8.230   4.626
33257SOL    HW2 1779   7.271   8.325   4.705
33258SOL     OW 1780   6.617   8.052   4.993
33258SOL    HW1 1781   6.595   8.029   5.083
33258SOL    HW2 1782   6.537   8.092   4.958
33259SOL     OW 1783   9.584   9.539   4.768
33259SOL    HW1 1784   9.640   9.616   4.773
33259SOL    HW2 1785   9.501   9.572   4.735
33260SOL     OW 1786   8.893   8.500   7.577
33260SOL    HW1 1787   8.962   8.520   7.640
33260SOL    HW2 1788   8.936   8.509   7.491
33261SOL     OW 1789   1.440   1.218   2.714
33261SOL    HW1 1790   1.420   1.158   2.641
33261SOL    HW2 1791   1.508   1.173   2.764
33262SOL     OW 1792   1.818   1.224   6.762
33262SOL    HW1 1793   1.890   1.232   6.699
33262SOL    HW2 1794   1.740   1.244   6.711
33263SOL     OW 1795   0.335   4.697  10.216
33263SOL    HW1 1796   0.373   4.616  10.251
33263SOL    HW2 1797   0.408   4.758  10.210
33264SOL     OW 1798   2.260   4.095   9.580
33264SOL    HW1 1799   2.193   4.150   9.620
33264SOL    HW2 1800   2.211   4.029   9.531
33265SOL     OW 1801   7.361   9.838  10.668
33265SOL    HW1 1802   7.434   9.807  10.721
33265SOL    HW2 1803   7.356   9.776  10.595
33266SOL     OW 1804   4.463   6.373   3.382
33266SOL    HW1 1805   4.435   6.455   3.421
33266SOL    HW2 1806   4.555   6.364   3.408
33267SOL     OW 1807   4.430   9.854   7.087
33267SOL    HW1 1808   4.364   9.805   7.039
33267SOL    HW2 1809   4.380   9.909   7.147
33268SOL     OW 1810   3.039   0.863   4.381
33268SOL    HW1 1811   3.042   0.934   4.445
33268SOL    HW2 1812   3.096   0.795   4.417
33269SOL     OW 1813   2.523   6.165   3.599
33269SOL    HW1 1814   2.489   6.226   3.664
33269SOL    HW2 1815   2.539   6.219   3.522
33270SOL     OW 1816   0.809   1.688  10.369
33270SOL    HW1 1817   0.763   1.620  10.320
33270SOL    HW2 1818   0.882   1.642  10.411
33271SOL     OW 1819   5.360  10.099   4.508
33271SOL    HW1 1820   5.337  10.050   4.429
33271SOL    HW2 1821   5.424  10.043   4.553
33272SOL     OW 1822   7.673   9.083  10.996
33272SOL    HW1 1823   7.733   9.065  11.068
33272SOL    HW2 1824   7.656   8.997  10.957
33273SOL     OW 1825   9.051   6.093   4.725
33273SOL    HW1 1826   9.083   6.029   4.789
33273SOL    HW2 1827   9.117   6.092   4.655
33274SOL     OW 1828   1.936   2.449   1.670
33274SOL    HW1 1829   1.944   2.403   1.586
33274SOL    HW2 1830   2.022   2.440   1.711
33275SOL     OW 1831   8.804   4.948   5.349
33275SOL    HW1 1832   8.816   4.890   5.273
33275SOL    HW2 1833   8.777   5.031   5.311
33276SOL     OW 1834   2.352   7.148   3.793
33276SOL    HW1 1835   2.382   7.092   3.721
33276SOL    HW2 1836   2.261   7.122   3.807
33277SOL     OW 1837   6.422   6.826   1.593
33277SOL    HW1 1838   6.459   6.901   1.638
33277SOL    HW2 1839   6.441   6.842   1.500
33278SOL     OW 1840   6.541  10.081   5.011
33278SOL    HW1 1841   6.586  10.105   5.092
33278SOL    HW2 1842   6.490  10.158   4.987
33279SOL     OW 1843   8.122   2.307   8.313
33279SOL    HW1 1844   8.169   2.390   8.306
33279SOL    HW2 1845   8.182   2.249   8.360
33280SOL     OW 1846   3.636   5.676   0.579
33280SOL    HW1 1847   3.592   5.749   0.535
33280SOL    HW2 1848   3.592   5.598   0.545
33281SOL     OW 1849   1.130   8.034   4.214
33281SOL    HW1 1850   1.042   8.068   4.229
33281SOL    HW2 1851   1.170   8.096   4.153
33282SOL     OW 1852   5.960   5.880   2.086
33282SOL    HW1 1853   5.889   5.824   2.118
33282SOL    HW2 1854   6.000   5.829   2.015
33283SOL     OW 1855   5.290   9.853  10.512
33283SOL    HW1 1856   5.303   9.904  10.432
33283SOL    HW2 1857   5.366   9.794  10.515
33284SOL     OW 1858   3.636   5.971   4.642
33284SOL    HW1 1859   3.590   5.890   4.618
33284SOL    HW2 1860   3.652   6.014   4.558
33285SOL     OW 1861   3.886   5.586   6.787
33285SOL    HW1 1862   3.924   5.585   6.875
33285SOL    HW2 1863   3.935   5.654   6.740
33286SOL     OW 1864   7.869   8.901   4.646
33286SOL    HW1 1865   7.813   8.876   4.719
33286SOL    HW2 1866   7.818   8.965   4.597
33287SOL     OW 1867   5.376   9.015   2.900
33287SOL    HW1 1868   5.433   9.043   2.971
33287SOL    HW2 1869   5.393   9.077   2.829
33288SOL     OW 1870   7.991   8.712   3.748
33288SOL    HW1 1871   7.973   8.687   3.657
33288SOL    HW2 1872   7.987   8.807   3.748
33289SOL     OW 1873   5.592   5.068   9.909
33289SOL    HW1 1874   5.596   5.145   9.966
33289SOL    HW2 1875   5.683   5.037   9.903
33290SOL     OW 1876   2.468   9.092  10.743
33290SOL    HW1 1877   2.511   9.052  10.667
33290SOL    HW2 1878   2.503   9.044  10.818
33291SOL     OW 1879   5.383   3.479   5.546
33291SOL    HW1 1880   5.295   3.474   5.510
33291SOL    HW2 1881   5.370   3.496   5.639
33292SOL     OW 1882   6.143   9.855   7.747
33292SOL    HW1 1883   6.113   9.901   7.669
33292SOL    HW2 1884   6.232   9.887   7.761
33293SOL     OW 1885   5.380   8.911   6.385
33293SOL    HW1 1886   5.433   8.990   6.372
33293SOL    HW2 1887   5.290   8.941   6.378
33294SOL     OW 1888   8.496   6.240   7.459
33294SOL    HW1 1889   8.568   6.255   7.521
33294SOL    HW2 1890   8.538   6.246   7.373
33295SOL     OW 1891   1.076   8.153   2.288
33295SOL    HW1 1892   1.090   8.078   2.230
33295SOL    HW2 1893   1.164   8.187   2.305
33296SOL     OW 1894   0.459   3.746   4.978
33296SOL    HW1 1895   0.423   3.827   4.943
33296SOL    HW2 1896   0.474   3.692   4.900
33297SOL     OW 1897   9.933   2.726   6.843
33297SOL    HW1 1898   9.984   2.676   6.907
33297SOL    HW2 1899   9.848   2.682   6.841
33298SOL     OW 1900   7.284   7.955   7.398
33298SOL    HW1 1901   7.204   7.929   7.444
33298SOL    HW2 1902   7.259   7.957   7.305
33299SOL     OW 1903   7.920   3.543   0.763
33299SOL    HW1 1904   7.972   3.517   0.839
33299SOL    HW2 1905   7.985   3.568   0.697
33300SOL     OW 1906   6.181   6.382   9.309
33300SOL    HW1 1907   6.177   6.371   9.404
33300SOL    HW2 1908   6.253   6.443   9.294
33301SOL     OW 1909   1.481  10.615   1.346
33301SOL    HW1 1910   1.443  10.699   1.369
33301SOL    HW2 1911   1.413  10.571   1.295
33302SOL     OW 1912   5.703   5.849   9.037
33302SOL    HW1 1913   5.698   5.877   9.128
33302SOL    HW2 1914   5.771   5.782   9.036
33303SOL     OW 1915   9.954   9.054   0.699
33303SOL    HW1 1916  10.022   9.023   0.759
33303SOL    HW2 1917   9.907   8.974   0.674
33304SOL     OW 1918   8.604   3.254   8.681
33304SOL    HW1 1919   8.654   3.216   8.753
33304SOL    HW2 1920   8.658   3.327   8.651
33305SOL     OW 1921   7.065   8.386   1.064
33305SOL    HW1 1922   7.076   8.468   1.112
33305SOL    HW2 1923   6.981   8.395   1.020
33306SOL     OW 1924   0.154   5.783   6.650
33306SOL    HW1 1925   0.135   5.775   6.556
33306SOL    HW2 1926   0.209   5.861   6.657
33307SOL     OW 1927   9.984   0.181   7.833
33307SOL    HW1 1928  10.028   0.217   7.756
33307SOL    HW2 1929   9.996   0.247   7.901
33308SOL     OW 1930  10.082   7.775  10.109
33308SOL    HW1 1931  10.019   7.799  10.041
33308SOL    HW2 1932  10.120   7.692  10.078
33309SOL     OW 1933   9.219   5.351   8.951
33309SOL    HW1 1934   9.206   5.324   9.042
33309SOL    HW2 1935   9.198   5.273   8.899
33310SOL     OW 1936   7.055   4.459   2.002
33310SOL    HW1 1937   7.024   4.368   2.006
33310SOL    HW2 1938   7.044   4.492   2.091
33311SOL     OW 1939   0.836   0.716   3.095
33311SOL    HW1 1940   0.887   0.791   3.064
33311SOL    HW2 1941   0.843   0.652   3.024
33312SOL     OW 1942   6.519  11.004   3.721
33312SOL    HW1 1943   6.488  11.018   3.810
33312SOL    HW2 1944   6.613  11.023   3.725
33313SOL     OW 1945   5.322   0.889   7.428
33313SOL    HW1 1946   5.391   0.911   7.365
33313SOL    HW2 1947   5.336   0.948   7.501
33314SOL     OW 1948   9.331   1.202   5.488
33314SOL    HW1 1949   9.296   1.286   5.516
33314SOL    HW2 1950   9.414   1.223   5.445
33315SOL     OW 1951   0.653   9.015   9.704
33315SOL    HW1 1952   0.569   8.968   9.702
33315SOL    HW2 1953   0.632   9.102   9.738
33316SOL     OW 1954   7.592   5.426   7.970
33316SOL    HW1 1955   7.620   5.404   7.881
33316SOL    HW2 1956   7.620   5.351   8.023
33317SOL     OW 1957   0.669  10.278   9.147
33317SOL    HW1 1958   0.698  10.209   9.087
33317SOL    HW2 1959   0.620  10.231   9.215
33318SOL     OW 1960   4.720   6.730   5.065
33318SOL    HW1 1961   4.804   6.734   5.110
33318SOL    HW2 1962   4.707   6.637   5.047
33319SOL     OW 1963  11.100   0.638   6.477
33319SOL    HW1 1964  11.094   0.676   6.564
33319SOL    HW2 1965  11.061   0.703   6.419
33320SOL     OW 1966   9.137   2.989   7.744
33320SOL    HW1 1967   9.090   2.907   7.726
33320SOL    HW2 1968   9.094   3.054   7.689
33321SOL     OW 1969   9.945   9.252   5.790
33321SOL    HW1 1970   9.939   9.340   5.825
33321SOL    HW2 1971   9.927   9.262   5.696
33322SOL     OW 1972  11.072   6.418   2.433
33322SOL    HW1 1973  11.112   6.343   2.389
33322SOL    HW2 1974  11.124   6.429   2.512
33323SOL     OW 1975   4.079  10.240   6.061
33323SOL    HW1 1976   4.019  10.291   6.116
33323SOL    HW2 1977   4.022  10.183   6.008
33324SOL     OW 1978   9.775   7.659   5.260
33324SOL    HW1 1979   9.768   7.694   5.171
33324SOL    HW2 1980   9.753   7.566   5.251
33325SOL     OW 1981   8.489   9.882   4.380
33325SOL    HW1 1982   8.481   9.874   4.285
33325SOL    HW2 1983   8.410   9.841   4.414
33326SOL     OW 1984   5.425   2.618   1.561
33326SOL    HW1 1985   5.433   2.523   1.551
33326SOL    HW2 1986   5.505   2.653   1.522
33327SOL     OW 1987   9.899   4.519   6.453
33327SOL    HW1 1988   9.819   4.468   6.463
33327SOL    HW2 1989   9.876   4.589   6.392
33328SOL     OW 1990   5.081   3.920   3.978
33328SOL    HW1 1991   5.113   3.971   3.904
33328SOL    HW2 1992   5.160   3.887   4.020
33329SOL     OW 1993   7.322   9.535   2.698
33329SOL    HW1 1994   7.399   9.509   2.749
33329SOL    HW2 1995   7.358   9.582   2.623
33330SOL     OW 1996   6.920   0.699   4.587
33330SOL    HW1 1997   6.967   0.775   4.552
33330SOL    HW2 1998   6.892   0.725   4.674
33331SOL     OW 1999   8.052   5.666   0.537
33331SOL    HW1 2000   8.057   5.636   0.627
33331SOL    HW2 2001   8.139   5.702   0.519
33332SOL     OW 2002   1.171   1.609   7.853
33332SOL    HW1 2003   1.231   1.659   7.908
33332SOL    HW2 2004   1.102   1.670   7.830
33333SOL     OW 2005   2.948   5.282   8.239
33333SOL    HW1 2006   2.864   5.327   8.242
33333SOL    HW2 2007   2.975   5.274   8.330
33334SOL     OW 2008   3.819   7.599   3.407
33334SOL    HW1 2009   3.795   7.513   3.372
33334SOL    HW2 2010   3.899   7.622   3.359
33335SOL     OW 2011   1.283   0.421   6.761
33335SOL    HW1 2012   1.352   0.448   6.700
33335SOL    HW2 2013   1.235   0.353   6.713
33336SOL     OW 2014   7.785   9.828   2.201
33336SOL    HW1 2015   7.742   9.810   2.284
33336SOL    HW2 2016   7.878   9.811   2.218
33337SOL     OW 2017   0.745   2.153   9.845
33337SOL    HW1 2018   0.682   2.193   9.785
33337SOL    HW2 2019   0.694   2.089   9.894
33338SOL     OW 2020   7.340   3.010   7.363
33338SOL    HW1 2021   7.345   3.031   7.270
33338SOL    HW2 2022   7.404   3.068   7.404
33339SOL     OW 2023   5.035   6.993   2.288
33339SOL    HW1 2024   5.111   6.993   2.229
33339SOL    HW2 2025   5.065   7.040   2.365
33340SOL     OW 2026   5.502   5.460   0.669
33340SOL    HW1 2027   5.589   5.457   0.710
33340SOL    HW2 2028   5.442   5.483   0.740
33341SOL     OW 2029   8.733   4.469  10.060
33341SOL    HW1 2030   8.716   4.416  10.138
33341SOL    HW2 2031   8.751   4.404   9.991
33342SOL     OW 2032   7.095   9.670   1.345
33342SOL    HW1 2033   7.122   9.582   1.318
33342SOL    HW2 2034   7.009   9.682   1.304
33343SOL     OW 2035   0.590   5.585   5.186
33343SOL    HW1 2036   0.529   5.653   5.214
33343SOL    HW2 2037   0.582   5.584   5.090
33344SOL     OW 2038  10.955   5.088   5.508
33344SOL    HW1 2039  10.911   5.135   5.437
33344SOL    HW2 2040  10.887   5.073   5.573
33345SOL     OW 2041  10.087   2.991  10.639
33345SOL    HW1 2042  10.038   2.913  10.611
33345SOL    HW2 2043  10.160   2.996  10.577
33346SOL     OW 2044   4.348   5.309   1.049
33346SOL    HW1 2045   4.262   5.328   1.011
33346SOL    HW2 2046   4.379   5.233   0.999
33347SOL     OW 2047   1.469   4.711   2.329
33347SOL    HW1 2048   1.555   4.676   2.352
33347SOL    HW2 2049   1.407   4.652   2.373
33348SOL     OW 2050   3.301   4.946   8.770
33348SOL    HW1 2051   3.242   4.895   8.714
33348SOL    HW2 2052   3.350   5.001   8.709
33349SOL     OW 2053   0.612   7.481   6.083
33349SOL    HW1 2054   0.559   7.428   6.143
33349SOL    HW2 2055   0.624   7.425   6.006
33350SOL     OW 2056   0.823   5.027   8.501
33350SOL    HW1 2057   0.745   5.065   8.541
33350SOL    HW2 2058   0.800   4.935   8.485
33351SOL     OW 2059   0.915   1.324  10.155
33351SOL    HW1 2060   0.935   1.367  10.238
33351SOL    HW2 2061   0.995   1.332  10.103
33352SOL     OW 2062   6.118   7.154   9.826
33352SOL    HW1 2063   6.039   7.160   9.878
33352SOL    HW2 2064   6.154   7.067   9.847
33353SOL     OW 2065   1.824   4.854   9.530
33353SOL    HW1 2066   1.755   4.892   9.584
33353SOL    HW2 2067   1.901   4.853   9.587
33354SOL     OW 2068   0.305   5.280   2.036
33354SOL    HW1 2069   0.216   5.315   2.027
33354SOL    HW2 2070   0.341   5.324   2.113
33355SOL     OW 2071   8.280   7.446   7.660
33355SOL    HW1 2072   8.281   7.520   7.599
33355SOL    HW2 2073   8.363   7.400   7.643
33356SOL     OW 2074   1.031   3.996   7.103
33356SOL    HW1 2075   1.110   4.029   7.145
33356SOL    HW2 2076   0.988   3.943   7.170
33357SOL     OW 2077   1.959   9.023   0.656
33357SOL    HW1 2078   1.890   9.083   0.684
33357SOL    HW2 2079   1.925   8.983   0.576
33358SOL     OW 2080   2.274   0.436   9.800
33358SOL    HW1 2081   2.343   0.478   9.851
33358SOL    HW2 2082   2.203   0.423   9.862
33359SOL     OW 2083  10.372   6.033   3.472
33359SOL    HW1 2084  10.426   6.066   3.543
33359SOL    HW2 2085  10.430   6.035   3.395
33360SOL     OW 2086   0.455   3.042   3.405
33360SOL    HW1 2087   0.420   2.969   3.457
33360SOL    HW2 2088   0.506   3.094   3.467
33361SOL     OW 2089   7.813   6.273   1.730
33361SOL    HW1 2090   7.786   6.360   1.701
33361SOL    HW2 2091   7.877   6.289   1.799
33362SOL     OW 2092   1.793   7.604   4.995
33362SOL    HW1 2093   1.746   7.638   4.919
33362SOL    HW2 2094   1.823   7.681   5.042
33363SOL     OW 2095  10.966   1.361   8.513
33363SOL    HW1 2096  11.051   1.325   8.487
33363SOL    HW2 2097  10.987   1.431   8.575
33364SOL     OW 2098  11.072   4.169   6.158
33364SOL    HW1 2099  11.086   4.120   6.077
33364SOL    HW2 2100  11.160   4.188   6.190
33365SOL     OW 2101  10.848   4.445   4.180
33365SOL    HW1 2102  10.816   4.380   4.116
33365SOL    HW2 2103  10.784   4.516   4.177
33366SOL     OW 2104   3.220   8.608   9.757
33366SOL    HW1 2105   3.135   8.592   9.797
33366SOL    HW2 2106   3.230   8.703   9.758
33367SOL     OW 2107   5.346   2.050   6.683
33367SOL    HW1 2108   5.419   2.073   6.740
33367SOL    HW2 2109   5.271   2.042   6.741
33368SOL     OW 2110   5.047   8.598   6.808
33368SOL    HW1 2111   5.015   8.511   6.832
33368SOL    HW2 2112   5.064   8.642   6.891
33369SOL     OW 2113   6.235   6.359   4.403
33369SOL    HW1 2114   6.320   6.387   4.437
33369SOL    HW2 2115   6.182   6.438   4.401
33370SOL     OW 2116   9.708  10.410   8.973
33370SOL    HW1 2117   9.714  10.317   8.994
33370SOL    HW2 2118   9.795  10.434   8.942
33371SOL     OW 2119   0.170   1.587  10.344
33371SOL    HW1 2120   0.086   1.540  10.350
33371SOL    HW2 2121   0.179   1.632  10.428
33372SOL     OW 2122   0.894   6.151   1.242
33372SOL    HW1 2123   0.982   6.115   1.229
33372SOL    HW2 2124   0.842   6.076   1.273
33373SOL     OW 2125   1.456  11.027   7.020
33373SOL    HW1 2126   1.367  11.004   7.045
33373SOL    HW2 2127   1.473  11.111   7.063
33374SOL     OW 2128   8.490   5.451   9.639
33374SOL    HW1 2129   8.478   5.408   9.554
33374SOL    HW2 2130   8.492   5.379   9.702
33375SOL     OW 2131   2.857  10.279   3.014
33375SOL    HW1 2132   2.822  10.231   2.939
33375SOL    HW2 2133   2.841  10.371   2.993
33376SOL     OW 2134   1.159  10.825   1.815
33376SOL    HW1 2135   1.254  10.840   1.822
33376SOL    HW2 2136   1.122  10.913   1.807
33377SOL     OW 2137   5.203   9.351   6.436
33377SOL    HW1 2138   5.109   9.351   6.452
33377SOL    HW2 2139   5.242   9.382   6.518
33378SOL     OW 2140   6.883   1.766   8.152
33378SOL    HW1 2141   6.839   1.849   8.134
33378SOL    HW2 2142   6.840   1.703   8.094
33379SOL     OW 2143   5.281   2.207   5.785
33379SOL    HW1 2144   5.188   2.226   5.791
33379SOL    HW2 2145   5.285   2.114   5.760
33380SOL     OW 2146   0.942   4.385  10.402
33380SOL    HW1 2147   1.032   4.405  10.376
33380SOL    HW2 2148   0.951   4.316  10.468
33381SOL     OW 2149   9.912   6.082   1.045
33381SOL    HW1 2150   9.947   5.993   1.046
33381SOL    HW2 2151   9.854   6.086   1.121
33382SOL     OW 2152   7.750   4.966   7.077
33382SOL    HW1 2153   7.696   4.973   7.156
33382SOL    HW2 2154   7.795   4.882   7.086
33383SOL     OW 2155  10.675   6.053   8.371
33383SOL    HW1 2156  10.649   6.036   8.280
33383SOL    HW2 2157  10.747   5.991   8.386
33384SOL     OW 2158   3.983   3.964   8.540
33384SOL    HW1 2159   3.890   3.967   8.518
33384SOL    HW2 2160   4.025   4.019   8.474
33385SOL     OW 2161   5.512   0.388   6.305
33385SOL    HW1 2162   5.607   0.393   6.292
33385SOL    HW2 2163   5.501   0.372   6.398
33386SOL     OW 2164   0.520   4.879   8.558
33386SOL    HW1 2165   0.578   4.813   8.520
33386SOL    HW2 2166   0.487   4.928   8.482
33387SOL     OW 2167   2.459   4.699   3.709
33387SOL    HW1 2168   2.484   4.607   3.720
33387SOL    HW2 2169   2.404   4.700   3.630
33388SOL     OW 2170  10.852   5.287   4.827
33388SOL    HW1 2171  10.926   5.246   4.782
33388SOL    HW2 2172  10.887   5.314   4.911
33389SOL     OW 2173   7.419   7.261   4.129
33389SOL    HW1 2174   7.374   7.189   4.084
33389SOL    HW2 2175   7.417   7.333   4.066
33390SOL     OW 2176   0.762   6.813   8.038
33390SOL    HW1 2177   0.731   6.897   8.070
33390SOL    HW2 2178   0.852   6.807   8.070
33391SOL     OW 2179   5.448   5.718   9.069
33391SOL    HW1 2180   5.432   5.799   9.117
33391SOL    HW2 2181   5.534   5.730   9.029
33392SOL     OW 2182   7.147   2.060   7.097
33392SOL    HW1 2183   7.098   2.055   7.015
33392SOL    HW2 2184   7.199   1.979   7.099
33393SOL     OW 2185   0.895   6.679   4.843
33393SOL    HW1 2186   0.826   6.727   4.889
33393SOL    HW2 2187   0.970   6.683   4.902
33394SOL     OW 2188   4.732   7.299   7.692
33394SOL    HW1 2189   4.664   7.292   7.625
33394SOL    HW2 2190   4.796   7.231   7.668
33395SOL     OW 2191   5.870   4.599   0.342
33395SOL    HW1 2192   5.884   4.506   0.320
33395SOL    HW2 2193   5.932   4.646   0.286
33396SOL     OW 2194   1.607   7.650   7.630
33396SOL    HW1 2195   1.624   7.605   7.547
33396SOL    HW2 2196   1.647   7.593   7.696
33397SOL     OW 2197   4.020   1.034   1.661
33397SOL    HW1 2198   4.004   0.940   1.667
33397SOL    HW2 2199   4.043   1.048   1.569
33398SOL     OW 2200   7.669   7.032   6.146
33398SOL    HW1 2201   7.757   7.046   6.182
33398SOL    HW2 2202   7.649   6.940   6.166
33399SOL     OW 2203   7.845   3.470   1.922
33399SOL    HW1 2204   7.861   3.542   1.861
33399SOL    HW2 2205   7.820   3.513   2.004
33400SOL     OW 2206   4.681   1.267   7.979
33400SOL    HW1 2207   4.745   1.337   7.991
33400SOL    HW2 2208   4.608   1.309   7.933
33401SOL     OW 2209   2.483   4.571   8.303
33401SOL    HW1 2210   2.415   4.550   8.367
33401SOL    HW2 2211   2.436   4.609   8.229
33402SOL     OW 2212   1.142   6.319   0.738
33402SOL    HW1 2213   1.131   6.245   0.798
33402SOL    HW2 2214   1.148   6.278   0.651
33403SOL     OW 2215  10.922   8.395   8.369
33403SOL    HW1 2216  10.972   8.358   8.296
33403SOL    HW2 2217  10.831   8.388   8.341
33404SOL     OW 2218   6.463   8.173   3.501
33404SOL    HW1 2219   6.392   8.142   3.557
33404SOL    HW2 2220   6.543   8.153   3.550
33405SOL     OW 2221   2.300   1.137   5.898
33405SOL    HW1 2222   2.258   1.061   5.858
33405SOL    HW2 2223   2.243   1.160   5.971
33406SOL     OW 2224   6.994   7.721   9.314
33406SOL    HW1 2225   6.967   7.794   9.259
33406SOL    HW2 2226   7.009   7.649   9.252
33407SOL     OW 2227   6.665   6.067   8.357
33407SOL    HW1 2228   6.682   6.159   8.377
33407SOL    HW2 2229   6.745   6.021   8.382
33408SOL     OW 2230   7.054   7.425   5.328
33408SOL    HW1 2231   7.014   7.413   5.414
33408SOL    HW2 2232   7.065   7.336   5.294
33409SOL     OW 2233   4.432  10.242   8.170
33409SOL    HW1 2234   4.513  10.245   8.119
33409SOL    HW2 2235   4.460  10.260   8.260
33410SOL     OW 2236   6.773   1.300   2.810
33410SOL    HW1 2237   6.771   1.281   2.716
33410SOL    HW2 2238   6.828   1.378   2.817
33411SOL     OW 2239   5.856   7.785   4.819
33411SOL    HW1 2240   5.843   7.749   4.731
33411SOL    HW2 2241   5.946   7.760   4.842
33412SOL     OW 2242   0.963   6.762   4.582
33412SOL    HW1 2243   1.053   6.732   4.598
33412SOL    HW2 2244   0.914   6.736   4.660
33413SOL     OW 2245   0.113   1.592   0.838
33413SOL    HW1 2246   0.066   1.669   0.870
33413SOL    HW2 2247   0.200   1.600   0.876
33414SOL     OW 2248   5.677   2.682   1.462
33414SOL    HW1 2249   5.751   2.634   1.499
33414SOL    HW2 2250   5.705   2.704   1.373
33415SOL     OW 2251   8.413   3.463  10.273
33415SOL    HW1 2252   8.383   3.441  10.361
33415SOL    HW2 2253   8.336   3.452  10.217
33416SOL     OW 2254   5.885   2.705   0.056
33416SOL    HW1 2255   5.950   2.686  -0.012
33416SOL    HW2 2256   5.937   2.739   0.129
33417SOL     OW 2257   5.786   8.445   1.601
33417SOL    HW1 2258   5.768   8.464   1.509
33417SOL    HW2 2259   5.801   8.350   1.603
33418SOL     OW 2260   1.199   6.662   4.649
33418SOL    HW1 2261   1.222   6.675   4.741
33418SOL    HW2 2262   1.283   6.662   4.603
33419SOL     OW 2263   5.512   1.005   4.356
33419SOL    HW1 2264   5.457   0.942   4.308
33419SOL    HW2 2265   5.588   0.953   4.384
33420SOL     OW 2266   6.355   6.388   7.753
33420SOL    HW1 2267   6.302   6.467   7.757
33420SOL    HW2 2268   6.385   6.384   7.662
33421SOL     OW 2269   1.386   6.617   8.825
33421SOL    HW1 2270   1.414   6.572   8.905
33421SOL    HW2 2271   1.429   6.569   8.754
33422SOL     OW 2272   0.026   4.395   2.882
33422SOL    HW1 2273   0.001   4.480   2.845
33422SOL    HW2 2274  -0.002   4.398   2.973
33423SOL     OW 2275   4.684   2.028   6.243
33423SOL    HW1 2276   4.747   2.087   6.201
33423SOL    HW2 2277   4.691   2.048   6.336
33424SOL     OW 2278  10.928  11.028   7.064
33424SOL    HW1 2279  10.847  11.074   7.043
33424SOL    HW2 2280  10.906  10.973   7.139
33425SOL     OW 2281   8.645   0.415   2.295
33425SOL    HW1 2282   8.642   0.352   2.367
33425SOL    HW2 2283   8.735   0.448   2.296
33426SOL     OW 2284   6.138   7.514   6.180
33426SOL    HW1 2285   6.108   7.551   6.262
33426SOL    HW2 2286   6.080   7.439   6.165
33427SOL     OW 2287   6.567   8.767   3.677
33427SOL    HW1 2288   6.539   8.728   3.594
33427SOL    HW2 2289   6.516   8.847   3.684
33428SOL     OW 2290   6.414   7.354   6.108
33428SOL    HW1 2291   6.372   7.439   6.094
33428SOL    HW2 2292   6.424   7.346   6.203
33429SOL     OW 2293  11.057   8.943   3.991
33429SOL    HW1 2294  11.057   9.038   3.995
33429SOL    HW2 2295  11.033   8.914   4.079
33430SOL     OW 2296   8.885   6.270   0.233
33430SOL    HW1 2297   8.832   6.259   0.154
33430SOL    HW2 2298   8.932   6.352   0.219
33431SOL     OW 2299  10.810   0.611   6.844
33431SOL    HW1 2300  10.747   0.645   6.907
33431SOL    HW2 2301  10.758   0.588   6.767
33432SOL     OW 2302  10.264   7.712   6.676
33432SOL    HW1 2303  10.284   7.738   6.586
33432SOL    HW2 2304  10.346   7.676   6.709
33433SOL     OW 2305   2.709   5.931   8.536
33433SOL    HW1 2306   2.620   5.927   8.569
33433SOL    HW2 2307   2.764   5.913   8.612
33434SOL     OW 2308   0.565   5.963   0.005
33434SOL    HW1 2309   0.504   6.035   0.023
33434SOL    HW2 2310   0.531   5.889   0.056
33435SOL     OW 2311   9.507   7.702   9.876
33435SOL    HW1 2312   9.584   7.714   9.820
33435SOL    HW2 2313   9.461   7.785   9.872
33436SOL     OW 2314   0.745   9.201   8.913
33436SOL    HW1 2315   0.707   9.250   8.840
33436SOL    HW2 2316   0.673   9.147   8.946
33437SOL     OW 2317   8.278   5.357   6.757
33437SOL    HW1 2318   8.360   5.382   6.799
33437SOL    HW2 2319   8.242   5.288   6.813
33438SOL     OW 2320   0.819   6.230   3.378
33438SOL    HW1 2321   0.902   6.243   3.332
33438SOL    HW2 2322   0.808   6.135   3.379
33439SOL     OW 2323   7.429   4.104   6.667
33439SOL    HW1 2324   7.349   4.062   6.700
33439SOL    HW2 2325   7.458   4.046   6.596
33440SOL     OW 2326   9.289   6.418  10.450
33440SOL    HW1 2327   9.359   6.382  10.505
33440SOL    HW2 2328   9.223   6.449  10.512
33441SOL     OW 2329   7.375   4.664   6.379
33441SOL    HW1 2330   7.305   4.718   6.416
33441SOL    HW2 2331   7.456   4.703   6.412
33442SOL     OW 2332   2.601   7.250   6.585
33442SOL    HW1 2333   2.589   7.160   6.616
33442SOL    HW2 2334   2.693   7.269   6.602
33443SOL     OW 2335  11.040   5.178   4.649
33443SOL    HW1 2336  11.087   5.193   4.566
33443SOL    HW2 2337  11.108   5.151   4.710
33444SOL     OW 2338   9.870  10.515   9.336
33444SOL    HW1 2339   9.917  10.548   9.412
33444SOL    HW2 2340   9.840  10.428   9.362
33445SOL     OW 2341  10.780   1.884   8.697
33445SOL    HW1 2342  10.703   1.827   8.690
33445SOL    HW2 2343  10.783   1.909   8.789
33446SOL     OW 2344   5.967  10.580   8.166
33446SOL    HW1 2345   6.024  10.527   8.110
33446SOL    HW2 2346   6.027  10.624   8.226
33447SOL     OW 2347   2.588   0.579   0.661
33447SOL    HW1 2348   2.563   0.540   0.744
33447SOL    HW2 2349   2.655   0.643   0.683
33448SOL     OW 2350   4.934   1.086   4.509
33448SOL    HW1 2351   4.853   1.056   4.467
33448SOL    HW2 2352   4.908   1.164   4.558
33449SOL     OW 2353   9.835   6.994   8.686
33449SOL    HW1 2354   9.909   7.051   8.664
33449SOL    HW2 2355   9.871   6.931   8.748
33450SOL     OW 2356   3.637   4.770   9.422
33450SOL    HW1 2357   3.548   4.806   9.420
33450SOL    HW2 2358   3.648   4.736   9.511
33451SOL     OW 2359   2.891   7.351   6.961
33451SOL    HW1 2360   2.973   7.346   7.010
33451SOL    HW2 2361   2.902   7.425   6.902
33452SOL     OW 2362   1.890   4.413   9.395
33452SOL    HW1 2363   1.846   4.405   9.310
33452SOL    HW2 2364   1.822   4.394   9.459
33453SOL     OW 2365   5.913   5.433   4.595
33453SOL    HW1 2366   5.897   5.514   4.546
33453SOL    HW2 2367   5.955   5.461   4.676
33454SOL     OW 2368  10.357   3.448   4.730
33454SOL    HW1 2369  10.263   3.439   4.742
33454SOL    HW2 2370  10.367   3.482   4.641
33455SOL     OW 2371   8.990   7.887   1.930
33455SOL    HW1 2372   8.917   7.948   1.933
33455SOL    HW2 2373   9.063   7.935   1.968
33456SOL     OW 2374   9.881  10.003   9.895
33456SOL    HW1 2375   9.819   9.931   9.907
33456SOL    HW2 2376   9.884  10.046   9.980
33457SOL     OW 2377   7.713   4.913   6.465
33457SOL    HW1 2378   7.689   4.883   6.377
33457SOL    HW2 2379   7.746   5.001   6.452
33458SOL     OW 2380   6.334   5.604  10.144
33458SOL    HW1 2381   6.423   5.575  10.162
33458SOL    HW2 2382   6.292   5.609  10.229
33459SOL     OW 2383   6.251   5.935   7.958
33459SOL    HW1 2384   6.278   6.005   7.898
33459SOL    HW2 2385   6.266   5.971   8.045
33460SOL     OW 2386   7.815   5.986   7.194
33460SOL    HW1 2387   7.830   5.971   7.100
33460SOL    HW2 2388   7.723   5.964   7.207
33461SOL     OW 2389   0.429   4.200   9.133
33461SOL    HW1 2390   0.375   4.245   9.067
33461SOL    HW2 2391   0.367   4.176   9.202
33462SOL     OW 2392   4.835   5.998   2.617
33462SOL    HW1 2393   4.827   5.930   2.684
33462SOL    HW2 2394   4.881   5.954   2.545
33463SOL     OW 2395  11.014   0.754   6.223
33463SOL    HW1 2396  11.028   0.659   6.216
33463SOL    HW2 2397  11.007   0.784   6.132
33464SOL     OW 2398   0.145   8.833   7.402
33464SOL    HW1 2399   0.102   8.844   7.317
33464SOL    HW2 2400   0.217   8.895   7.400
33465SOL     OW 2401   3.949   3.982   5.773
33465SOL    HW1 2402   3.876   3.924   5.752
33465SOL    HW2 2403   3.996   3.992   5.690
33466SOL     OW 2404   5.960   4.843   7.464
33466SOL    HW1 2405   5.973   4.806   7.376
33466SOL    HW2 2406   5.969   4.937   7.452
33467SOL     OW 2407   7.747   2.685   5.926
33467SOL    HW1 2408   7.713   2.633   5.998
33467SOL    HW2 2409   7.718   2.638   5.847
33468SOL     OW 2410   1.719   7.690   6.476
33468SOL    HW1 2411   1.739   7.739   6.556
33468SOL    HW2 2412   1.681   7.608   6.507
33469SOL     OW 2413   2.036   9.739   7.045
33469SOL    HW1 2414   2.086   9.785   6.977
33469SOL    HW2 2415   1.953   9.786   7.050
33470SOL     OW 2416   6.492   2.073   4.749
33470SOL    HW1 2417   6.522   2.093   4.837
33470SOL    HW2 2418   6.398   2.058   4.758
33471SOL     OW 2419   2.747   4.723   5.322
33471SOL    HW1 2420   2.792   4.735   5.405
33471SOL    HW2 2421   2.700   4.640   5.332
33472SOL     OW 2422   7.499   7.330   2.738
33472SOL    HW1 2423   7.534   7.294   2.819
33472SOL    HW2 2424   7.576   7.343   2.683
33473SOL     OW 2425   1.494   6.290   4.032
33473SOL    HW1 2426   1.524   6.261   3.946
33473SOL    HW2 2427   1.409   6.331   4.015
33474SOL     OW 2428   6.161   6.962   6.363
33474SOL    HW1 2429   6.189   7.051   6.385
33474SOL    HW2 2430   6.242   6.917   6.340
33475SOL     OW 2431   1.296   2.690   9.331
33475SOL    HW1 2432   1.286   2.777   9.369
33475SOL    HW2 2433   1.345   2.704   9.250
33476SOL     OW 2434  10.154   8.186   9.676
33476SOL    HW1 2435  10.235   8.139   9.655
33476SOL    HW2 2436  10.142   8.246   9.602
33477SOL     OW 2437   3.849  11.058   5.226
33477SOL    HW1 2438   3.825  11.093   5.312
33477SOL    HW2 2439   3.920  11.115   5.196
33478SOL     OW 2440   0.254   4.236   2.858
33478SOL    HW1 2441   0.245   4.289   2.779
33478SOL    HW2 2442   0.170   4.246   2.903
33479SOL     OW 2443   8.551   2.320   1.839
33479SOL    HW1 2444   8.579   2.235   1.873
33479SOL    HW2 2445   8.530   2.371   1.917
33480SOL     OW 2446   3.791   6.598   4.339
33480SOL    HW1 2447   3.843   6.643   4.272
33480SOL    HW2 2448   3.821   6.635   4.421
33481SOL     OW 2449   8.274   6.061   7.466
33481SOL    HW1 2450   8.349   6.112   7.434
33481SOL    HW2 2451   8.204   6.079   7.403
33482SOL     OW 2452   0.902   0.555   7.538
33482SOL    HW1 2453   0.848   0.542   7.616
33482SOL    HW2 2454   0.951   0.473   7.529
33483SOL     OW 2455  10.537   5.491   4.992
33483SOL    HW1 2456  10.585   5.557   5.042
33483SOL    HW2 2457  10.533   5.526   4.903
33484SOL     OW 2458   7.918   5.703  10.178
33484SOL    HW1 2459   7.873   5.729  10.097
33484SOL    HW2 2460   7.957   5.783  10.211
33485SOL     OW 2461   5.697   8.940   5.264
33485SOL    HW1 2462   5.731   8.983   5.342
33485SOL    HW2 2463   5.623   8.888   5.295
33486SOL     OW 2464   3.994   3.289   8.007
33486SOL    HW1 2465   4.026   3.342   7.934
33486SOL    HW2 2466   4.038   3.325   8.083
33487SOL     OW 2467   8.408   4.490  10.254
33487SOL    HW1 2468   8.490   4.441  10.242
33487SOL    HW2 2469   8.397   4.537  10.172
33488SOL     OW 2470   7.964   8.016   7.595
33488SOL    HW1 2471   7.908   8.081   7.553
33488SOL    HW2 2472   8.026   8.067   7.647
33489SOL     OW 2473   6.012   7.928  10.864
33489SOL    HW1 2474   6.026   8.007  10.916
33489SOL    HW2 2475   5.971   7.959  10.783
33490SOL     OW 2476  10.955   4.857   9.836
33490SOL    HW1 2477  10.906   4.937   9.819
33490SOL    HW2 2478  10.912   4.818   9.912
33491SOL     OW 2479   7.565  10.518   7.923
33491SOL    HW1 2480   7.600  10.593   7.970
33491SOL    HW2 2481   7.591  10.442   7.975
33492SOL     OW 2482   6.255   2.749   3.223
33492SOL    HW1 2483   6.267   2.842   3.204
33492SOL    HW2 2484   6.344   2.714   3.232
33493SOL     OW 2485   1.589   0.172   7.877
33493SOL    HW1 2486   1.507   0.221   7.881
33493SOL    HW2 2487   1.634   0.207   7.800
33494SOL     OW 2488   6.148   7.989   9.384
33494SOL    HW1 2489   6.062   7.947   9.392
33494SOL    HW2 2490   6.205   7.920   9.349
33495SOL     OW 2491   1.988   0.930   5.527
33495SOL    HW1 2492   2.071   0.908   5.484
33495SOL    HW2 2493   2.003   1.017   5.564
33496SOL     OW 2494   0.215   8.698   5.312
33496SOL    HW1 2495   0.132   8.656   5.286
33496SOL    HW2 2496   0.193   8.751   5.388
33497SOL     OW 2497   2.677   3.970   1.037
33497SOL    HW1 2498   2.649   3.993   1.125
33497SOL    HW2 2499   2.627   3.891   1.015
33498SOL     OW 2500   6.802   7.204   2.102
33498SOL    HW1 2501   6.798   7.276   2.039
33498SOL    HW2 2502   6.714   7.198   2.137
33499SOL     OW 2503   0.698   3.759  10.670
33499SOL    HW1 2504   0.733   3.763  10.581
33499SOL    HW2 2505   0.745   3.686  10.711
33500SOL     OW 2506   9.343   5.466  10.068
33500SOL    HW1 2507   9.402   5.463   9.992
33500SOL    HW2 2508   9.389   5.416  10.135
33501SOL     OW 2509   3.618   8.744   5.728
33501SOL    HW1 2510   3.707   8.708   5.729
33501SOL    HW2 2511   3.626   8.830   5.767
33502SOL     OW 2512   9.435   7.347   3.390
33502SOL    HW1 2513   9.441   7.253   3.411
33502SOL    HW2 2514   9.442   7.350   3.294
33503SOL     OW 2515   8.774   5.024   8.765
33503SOL    HW1 2516   8.802   5.052   8.678
33503SOL    HW2 2517   8.770   4.928   8.758
33504SOL     OW 2518   7.898   3.554   6.146
33504SOL    HW1 2519   7.865   3.541   6.057
33504SOL    HW2 2520   7.893   3.648   6.160
33505SOL     OW 2521   2.136   9.906   7.257
33505SOL    HW1 2522   2.095   9.825   7.226
33505SOL    HW2 2523   2.165   9.950   7.177
33506SOL     OW 2524   7.502   6.697   4.545
33506SOL    HW1 2525   7.465   6.785   4.541
33506SOL    HW2 2526   7.465   6.652   4.469
33507SOL     OW 2527   6.212   5.942   6.529
33507SOL    HW1 2528   6.168   5.920   6.447
33507SOL    HW2 2529   6.294   5.983   6.502
33508SOL     OW 2530   3.169   9.312   5.341
33508SOL    HW1 2531   3.188   9.269   5.257
33508SOL    HW2 2532   3.078   9.339   5.333
33509SOL     OW 2533   8.404   1.301   3.996
33509SOL    HW1 2534   8.330   1.255   4.037
33509SOL    HW2 2535   8.471   1.305   4.064
33510SOL     OW 2536   0.508   8.677   7.714
33510SOL    HW1 2537   0.461   8.750   7.752
33510SOL    HW2 2538   0.477   8.600   7.763
33511SOL     OW 2539   6.233   5.974  10.665
33511SOL    HW1 2540   6.326   5.987  10.648
33511SOL    HW2 2541   6.230   5.908  10.734
33512SOL     OW 2542  10.487   2.081   5.396
33512SOL    HW1 2543  10.469   2.157   5.341
33512SOL    HW2 2544  10.453   2.007   5.345
33513SOL     OW 2545   6.101   0.164   0.606
33513SOL    HW1 2546   6.033   0.218   0.566
33513SOL    HW2 2547   6.074   0.156   0.697
33514SOL     OW 2548   3.146   3.976   7.867
33514SOL    HW1 2549   3.118   4.026   7.790
33514SOL    HW2 2550   3.105   4.021   7.941
33515SOL     OW 2551   9.538   5.924  10.525
33515SOL    HW1 2552   9.483   5.871  10.582
33515SOL    HW2 2553   9.628   5.904  10.552
33516SOL     OW 2554   9.690   7.541   6.376
33516SOL    HW1 2555   9.766   7.594   6.351
33516SOL    HW2 2556   9.615   7.590   6.344
33517SOL     OW 2557   8.925   4.242   4.581
33517SOL    HW1 2558   8.846   4.187   4.583
33517SOL    HW2 2559   8.910   4.304   4.509
33518SOL     OW 2560   1.132   4.981   2.962
33518SOL    HW1 2561   1.199   4.952   3.023
33518SOL    HW2 2562   1.139   4.920   2.888
33519SOL     OW 2563   9.568   7.717   8.042
33519SOL    HW1 2564   9.613   7.734   8.124
33519SOL    HW2 2565   9.519   7.636   8.057
33520SOL     OW 2566   6.711   4.540   6.206
33520SOL    HW1 2567   6.769   4.469   6.234
33520SOL    HW2 2568   6.714   4.603   6.278
33521SOL     OW 2569   7.656   3.260   8.105
33521SOL    HW1 2570   7.607   3.194   8.154
33521SOL    HW2 2571   7.693   3.211   8.031
33522SOL     OW 2572   7.076   5.369   7.730
33522SOL    HW1 2573   7.014   5.321   7.675
33522SOL    HW2 2574   7.102   5.444   7.677
33523SOL     OW 2575   7.567   6.317   9.780
33523SOL    HW1 2576   7.485   6.347   9.740
33523SOL    HW2 2577   7.636   6.358   9.727
33524SOL     OW 2578   3.330   9.844   3.233
33524SOL    HW1 2579   3.353   9.922   3.183
33524SOL    HW2 2580   3.268   9.875   3.298
33525SOL     OW 2581   1.425   6.680  11.052
33525SOL    HW1 2582   1.337   6.688  11.088
33525SOL    HW2 2583   1.476   6.748  11.095
33526SOL     OW 2584   5.022   0.253   9.023
33526SOL    HW1 2585   4.986   0.298   9.099
33526SOL    HW2 2586   4.947   0.208   8.983
33527SOL     OW 2587   4.658   6.076   7.881
33527SOL    HW1 2588   4.599   6.057   7.808
33527SOL    HW2 2589   4.746   6.061   7.845
33528SOL     OW 2590   5.408   5.407   4.797
33528SOL    HW1 2591   5.392   5.314   4.777
33528SOL    HW2 2592   5.486   5.406   4.853
33529SOL     OW 2593   6.764   4.759   6.715
33529SOL    HW1 2594   6.758   4.850   6.743
33529SOL    HW2 2595   6.739   4.708   6.792
33530SOL     OW 2596   8.863   9.970   5.726
33530SOL    HW1 2597   8.769   9.986   5.730
33530SOL    HW2 2598   8.898  10.043   5.675
33531SOL     OW 2599   6.256   5.725  10.361
33531SOL    HW1 2600   6.183   5.774  10.323
33531SOL    HW2 2601   6.315   5.792  10.395
33532SOL     OW 2602  10.836   4.634   7.132
33532SOL    HW1 2603  10.836   4.676   7.046
33532SOL    HW2 2604  10.918   4.662   7.172
33533SOL     OW 2605   7.740   1.448   0.369
33533SOL    HW1 2606   7.803   1.403   0.426
33533SOL    HW2 2607   7.790   1.520   0.331
33534SOL     OW 2608  10.154   3.619   0.419
33534SOL    HW1 2609  10.124   3.559   0.487
33534SOL    HW2 2610  10.112   3.702   0.440
33535SOL     OW 2611   6.546   2.023   8.854
33535SOL    HW1 2612   6.472   1.997   8.909
33535SOL    HW2 2613   6.506   2.067   8.779
33536SOL     OW 2614   1.336   5.324  10.057
33536SOL    HW1 2615   1.375   5.384  10.120
33536SOL    HW2 2616   1.251   5.362  10.036
33537SOL     OW 2617   8.749   3.298   6.059
33537SOL    HW1 2618   8.695   3.377   6.063
33537SOL    HW2 2619   8.799   3.299   6.140
33538SOL     OW 2620   1.399   4.682   9.969
33538SOL    HW1 2621   1.424   4.696   9.877
33538SOL    HW2 2622   1.482   4.679  10.016
33539SOL     OW 2623   5.945   4.327   1.749
33539SOL    HW1 2624   5.925   4.358   1.837
33539SOL    HW2 2625   5.870   4.353   1.696
33540SOL     OW 2626   9.740   7.157   7.316
33540SOL    HW1 2627   9.830   7.124   7.314
33540SOL    HW2 2628   9.730   7.204   7.233
33541SOL     OW 2629   2.761   6.943   1.626
33541SOL    HW1 2630   2.839   6.980   1.666
33541SOL    HW2 2631   2.714   6.902   1.698
33542SOL     OW 2632   9.192  10.597   9.183
33542SOL    HW1 2633   9.174  10.577   9.091
33542SOL    HW2 2634   9.264  10.539   9.206
33543SOL     OW 2635   7.801   0.452   2.960
33543SOL    HW1 2636   7.741   0.475   2.889
33543SOL    HW2 2637   7.772   0.365   2.988
33544SOL     OW 2638   9.426   4.783   6.017
33544SOL    HW1 2639   9.406   4.858   6.073
33544SOL    HW2 2640   9.446   4.821   5.931
33545SOL     OW 2641   4.591   6.118   3.235
33545SOL    HW1 2642   4.510   6.144   3.191
33545SOL    HW2 2643   4.646   6.196   3.234
33546SOL     OW 2644   2.900   1.197   7.468
33546SOL    HW1 2645   2.934   1.118   7.511
33546SOL    HW2 2646   2.815   1.170   7.433
33547SOL     OW 2647   2.074   4.536   6.153
33547SOL    HW1 2648   1.996   4.590   6.143
33547SOL    HW2 2649   2.064   4.467   6.087
33548SOL     OW 2650   7.814   8.056   9.844
33548SOL    HW1 2651   7.819   7.983   9.781
33548SOL    HW2 2652   7.832   8.134   9.791
33549SOL     OW 2653   5.197   1.289   1.653
33549SOL    HW1 2654   5.191   1.334   1.737
33549SOL    HW2 2655   5.147   1.344   1.592
33550SOL     OW 2656   1.869   6.845  10.296
33550SOL    HW1 2657   1.957   6.828  10.262
33550SOL    HW2 2658   1.866   6.939  10.309
33551SOL     OW 2659  10.543   4.470   1.912
33551SOL    HW1 2660  10.516   4.538   1.973
33551SOL    HW2 2661  10.477   4.472   1.842
33552SOL     OW 2662   0.288   7.935   9.358
33552SOL    HW1 2663   0.211   7.878   9.357
33552SOL    HW2 2664   0.304   7.954   9.265
33553SOL     OW 2665   0.756  10.327   7.374
33553SOL    HW1 2666   0.846  10.308   7.348
33553SOL    HW2 2667   0.702  10.282   7.309
33554SOL     OW 2668   0.388   5.141   8.629
33554SOL    HW1 2669   0.400   5.046   8.632
33554SOL    HW2 2670   0.456   5.171   8.569
33555SOL     OW 2671  10.394   2.095   9.888
33555SOL    HW1 2672  10.382   2.023   9.950
33555SOL    HW2 2673  10.489   2.110   9.887
33556SOL     OW 2674   6.473   1.042   0.973
33556SOL    HW1 2675   6.380   1.018   0.972
33556SOL    HW2 2676   6.504   1.013   1.058
33557SOL     OW 2677   9.947   7.407   4.492
33557SOL    HW1 2678  10.026   7.366   4.528
33557SOL    HW2 2679   9.977   7.491   4.457
33558SOL     OW 2680   8.887   7.054   0.548
33558SOL    HW1 2681   8.829   6.993   0.594
33558SOL    HW2 2682   8.901   7.125   0.610
33559SOL     OW 2683  10.635   6.178   7.159
33559SOL    HW1 2684  10.643   6.198   7.065
33559SOL    HW2 2685  10.689   6.244   7.202
33560SOL     OW 2686   5.226   5.438   8.841
33560SOL    HW1 2687   5.263   5.524   8.857
33560SOL    HW2 2688   5.221   5.431   8.745
33561SOL     OW 2689   5.632   1.015   6.040
33561SOL    HW1 2690   5.699   0.966   6.087
33561SOL    HW2 2691   5.550   0.994   6.085
33562SOL     OW 2692   7.838   4.489  10.517
33562SOL    HW1 2693   7.857   4.417  10.457
33562SOL    HW2 2694   7.860   4.454  10.603
33563SOL     OW 2695   7.280   3.671  11.008
33563SOL    HW1 2696   7.334   3.592  11.003
33563SOL    HW2 2697   7.263   3.683  11.101
33564SOL     OW 2698   2.161   4.084   5.379
33564SOL    HW1 2699   2.254   4.070   5.362
33564SOL    HW2 2700   2.154   4.091   5.474
33565SOL     OW 2701   4.782   4.861  10.587
33565SOL    HW1 2702   4.726   4.826  10.656
33565SOL    HW2 2703   4.728   4.926  10.542
33566SOL     OW 2704   3.900  10.360   3.600
33566SOL    HW1 2705   3.876  10.271   3.628
33566SOL    HW2 2706   3.832  10.416   3.637
33567SOL     OW 2707   5.409   6.728   0.654
33567SOL    HW1 2708   5.491   6.777   0.664
33567SOL    HW2 2709   5.401   6.677   0.734
33568SOL     OW 2710   4.227   3.347   0.193
33568SOL    HW1 2711   4.229   3.371   0.101
33568SOL    HW2 2712   4.310   3.379   0.228
33569SOL     OW 2713   9.861   3.989  10.202
33569SOL    HW1 2714   9.928   3.987  10.270
33569SOL    HW2 2715   9.787   4.035  10.242
33570SOL     OW 2716  10.548   4.359  10.844
33570SOL    HW1 2717  10.494   4.289  10.807
33570SOL    HW2 2718  10.502   4.439  10.822
33571SOL     OW 2719  10.114   8.401   5.260
33571SOL    HW1 2720  10.031   8.355   5.268
33571SOL    HW2 2721  10.091   8.486   5.224
33572SOL     OW 2722   1.000   1.946   0.955
33572SOL    HW1 2723   0.998   1.850   0.952
33572SOL    HW2 2724   1.054   1.970   0.880
33573SOL     OW 2725   5.642   4.766   8.405
33573SOL    HW1 2726   5.701   4.742   8.333
33573SOL    HW2 2727   5.561   4.792   8.361
33574SOL     OW 2728   1.300   8.185   4.063
33574SOL    HW1 2729   1.381   8.236   4.059
33574SOL    HW2 2730   1.249   8.215   3.987
33575SOL     OW 2731   2.091   3.401   8.969
33575SOL    HW1 2732   2.004   3.362   8.963
33575SOL    HW2 2733   2.076   3.489   9.002
33576SOL     OW 2734   8.179   7.763   2.977
33576SOL    HW1 2735   8.205   7.671   2.991
33576SOL    HW2 2736   8.083   7.761   2.976
33577SOL     OW 2737   6.472   7.970   8.871
33577SOL    HW1 2738   6.545   8.017   8.911
33577SOL    HW2 2739   6.496   7.877   8.879
33578SOL     OW 2740   7.670   2.337   5.388
33578SOL    HW1 2741   7.746   2.394   5.378
33578SOL    HW2 2742   7.655   2.302   5.300
33579SOL     OW 2743   7.197  10.823   8.120
33579SOL    HW1 2744   7.151  10.751   8.163
33579SOL    HW2 2745   7.127  10.879   8.086
33580SOL     OW 2746   7.739   8.904  10.376
33580SOL    HW1 2747   7.671   8.859  10.325
33580SOL    HW2 2748   7.779   8.965  10.313
33581SOL     OW 2749   8.787   4.947  10.220
33581SOL    HW1 2750   8.808   5.033  10.185
33581SOL    HW2 2751   8.770   4.893  10.142
33582SOL     OW 2752   8.127   6.918   1.516
33582SOL    HW1 2753   8.137   6.871   1.432
33582SOL    HW2 2754   8.110   6.849   1.580
33583SOL     OW 2755   0.266   2.638   4.819
33583SOL    HW1 2756   0.297   2.724   4.790
33583SOL    HW2 2757   0.303   2.628   4.906
33584SOL     OW 2758   1.428   1.534   9.224
33584SOL    HW1 2759   1.463   1.446   9.239
33584SOL    HW2 2760   1.393   1.561   9.309
33585SOL     OW 2761   6.873   5.948   9.341
33585SOL    HW1 2762   6.805   5.905   9.288
33585SOL    HW2 2763   6.938   5.977   9.277
33586SOL     OW 2764   3.504  10.673   9.060
33586SOL    HW1 2765   3.587  10.712   9.032
33586SOL    HW2 2766   3.438  10.714   9.004
33587SOL     OW 2767   6.755   9.865  10.283
33587SOL    HW1 2768   6.676   9.860  10.337
33587SOL    HW2 2769   6.809   9.792  10.313
33588SOL     OW 2770   5.772   9.061   6.879
33588SOL    HW1 2771   5.783   9.080   6.972
33588SOL    HW2 2772   5.684   9.025   6.872
33589SOL     OW 2773   2.573   7.556   6.938
33589SOL    HW1 2774   2.639   7.604   6.887
33589SOL    HW2 2775   2.498   7.547   6.878
33590SOL     OW 2776   3.587   5.479   4.572
33590SOL    HW1 2777   3.681   5.492   4.561
33590SOL    HW2 2778   3.565   5.411   4.507
33591SOL     OW 2779   8.703   0.359   3.518
33591SOL    HW1 2780   8.634   0.425   3.525
33591SOL    HW2 2781   8.729   0.341   3.608
33592SOL     OW 2782   2.923   5.591   2.975
33592SOL    HW1 2783   2.975   5.539   2.914
33592SOL    HW2 2784   2.832   5.569   2.953
33593SOL     OW 2785   2.685   9.109   4.243
33593SOL    HW1 2786   2.714   9.117   4.152
33593SOL    HW2 2787   2.590   9.118   4.239
33594SOL     OW 2788   9.132   5.410   4.909
33594SOL    HW1 2789   9.042   5.378   4.909
33594SOL    HW2 2790   9.132   5.481   4.973
33595SOL     OW 2791   0.589   4.725   8.175
33595SOL    HW1 2792   0.654   4.663   8.142
33595SOL    HW2 2793   0.619   4.810   8.143
33596SOL     OW 2794   7.974   8.554   7.698
33596SOL    HW1 2795   7.901   8.594   7.652
33596SOL    HW2 2796   7.980   8.602   7.780
33597SOL     OW 2797   7.371   0.144   7.259
33597SOL    HW1 2798   7.372   0.054   7.291
33597SOL    HW2 2799   7.278   0.166   7.252
33598SOL     OW 2800   7.868   8.320   7.644
33598SOL    HW1 2801   7.811   8.315   7.720
33598SOL    HW2 2802   7.934   8.386   7.666
33599SOL     OW 2803   9.821   6.174   9.057
33599SOL    HW1 2804   9.746   6.225   9.029
33599SOL    HW2 2805   9.894   6.235   9.055
33600SOL     OW 2806   9.915   6.474   1.129
33600SOL    HW1 2807   9.908   6.416   1.205
33600SOL    HW2 2808   9.871   6.426   1.058
33601SOL     OW 2809   0.015   3.185   4.433
33601SOL    HW1 2810  -0.013   3.229   4.513
33601SOL    HW2 2811   0.081   3.122   4.461
33602SOL     OW 2812   1.705   4.523  10.795
33602SOL    HW1 2813   1.737   4.606  10.830
33602SOL    HW2 2814   1.629   4.547  10.742
33603SOL     OW 2815   2.041   0.244   0.291
33603SOL    HW1 2816   1.952   0.223   0.264
33603SOL    HW2 2817   2.096   0.203   0.223
33604SOL     OW 2818   7.031   3.513   7.373
33604SOL    HW1 2819   7.000   3.522   7.463
33604SOL    HW2 2820   6.952   3.497   7.321
33605SOL     OW 2821   8.935   7.858   6.909
33605SOL    HW1 2822   8.935   7.938   6.856
33605SOL    HW2 2823   8.897   7.884   6.992
33606SOL     OW 2824   6.625   5.301   8.055
33606SOL    HW1 2825   6.674   5.248   7.991
33606SOL    HW2 2826   6.534   5.291   8.029
33607SOL     OW 2827   0.243   1.825   7.310
33607SOL    HW1 2828   0.205   1.871   7.235
33607SOL    HW2 2829   0.170   1.775   7.347
33608SOL     OW 2830   7.036   4.556   6.738
33608SOL    HW1 2831   7.009   4.631   6.686
33608SOL    HW2 2832   7.048   4.591   6.826
33609SOL     OW 2833   7.124   5.849   6.407
33609SOL    HW1 2834   7.179   5.890   6.340
33609SOL    HW2 2835   7.043   5.900   6.406
33610SOL     OW 2836   5.791   6.857   8.363
33610SOL    HW1 2837   5.716   6.816   8.405
33610SOL    HW2 2838   5.763   6.872   8.273
33611SOL     OW 2839   9.624   8.198   7.561
33611SOL    HW1 2840   9.588   8.119   7.521
33611SOL    HW2 2841   9.605   8.267   7.498
33612SOL     OW 2842   2.954   7.750  10.388
33612SOL    HW1 2843   2.862   7.733  10.410
33612SOL    HW2 2844   2.953   7.835  10.344
33613SOL     OW 2845   3.357   7.851   4.066
33613SOL    HW1 2846   3.271   7.810   4.075
33613SOL    HW2 2847   3.392   7.814   3.985
33614SOL     OW 2848   9.960   4.192   4.032
33614SOL    HW1 2849  10.026   4.137   4.075
33614SOL    HW2 2850   9.938   4.259   4.096
33615SOL     OW 2851   9.975   0.507   6.654
33615SOL    HW1 2852   9.897   0.556   6.679
33615SOL    HW2 2853   9.943   0.417   6.642
33616SOL     OW 2854  10.553   1.286   6.930
33616SOL    HW1 2855  10.620   1.288   6.998
33616SOL    HW2 2856  10.581   1.352   6.867
33617SOL     OW 2857   8.343   3.636   5.887
33617SOL    HW1 2858   8.375   3.680   5.965
33617SOL    HW2 2859   8.293   3.561   5.920
33618SOL     OW 2860   9.923   8.769   1.869
33618SOL    HW1 2861   9.931   8.848   1.816
33618SOL    HW2 2862   9.844   8.726   1.835
33619SOL     OW 2863   8.036   6.565   6.983
33619SOL    HW1 2864   7.999   6.587   6.897
33619SOL    HW2 2865   8.102   6.632   6.999
33620SOL     OW 2866   6.453   5.615   6.369
33620SOL    HW1 2867   6.370   5.660   6.359
33620SOL    HW2 2868   6.482   5.599   6.279
33621SOL     OW 2869  10.216   4.908   6.779
33621SOL    HW1 2870  10.267   4.970   6.727
33621SOL    HW2 2871  10.167   4.963   6.840
33622SOL     OW 2872   0.797   9.109   7.993
33622SOL    HW1 2873   0.812   9.143   7.904
33622SOL    HW2 2874   0.810   9.014   7.985
33623SOL     OW 2875   7.253   3.716   0.907
33623SOL    HW1 2876   7.347   3.711   0.889
33623SOL    HW2 2877   7.234   3.635   0.955
33624SOL     OW 2878   8.544   4.513   6.767
33624SOL    HW1 2879   8.470   4.468   6.808
33624SOL    HW2 2880   8.504   4.566   6.698
33625SOL     OW 2881   6.836   7.601   9.011
33625SOL    HW1 2882   6.861   7.637   8.925
33625SOL    HW2 2883   6.919   7.595   9.059
33626SOL     OW 2884   1.210   7.268   4.506
33626SOL    HW1 2885   1.149   7.300   4.572
33626SOL    HW2 2886   1.180   7.179   4.486
33627SOL     OW 2887   8.750   7.040   3.580
33627SOL    HW1 2888   8.735   7.134   3.586
33627SOL    HW2 2889   8.669   7.000   3.612
33628SOL     OW 2890   5.060   1.183   8.091
33628SOL    HW1 2891   5.133   1.188   8.029
33628SOL    HW2 2892   5.006   1.259   8.071
33629SOL     OW 2893   3.513   7.191   3.291
33629SOL    HW1 2894   3.499   7.256   3.222
33629SOL    HW2 2895   3.530   7.110   3.243
33630SOL     OW 2896   9.985   1.050   0.485
33630SOL    HW1 2897   9.973   1.144   0.477
33630SOL    HW2 2898   9.958   1.015   0.400
33631SOL     OW 2899   9.544   7.276   9.834
33631SOL    HW1 2900   9.527   7.317   9.749
33631SOL    HW2 2901   9.464   7.289   9.884
33632SOL     OW 2902   8.760   6.377   9.376
33632SOL    HW1 2903   8.819   6.330   9.435
33632SOL    HW2 2904   8.677   6.331   9.384
33633SOL     OW 2905   6.951   3.822   7.423
33633SOL    HW1 2906   6.918   3.905   7.390
33633SOL    HW2 2907   7.007   3.789   7.353
33634SOL     OW 2908   1.252   4.564   4.644
33634SOL    HW1 2909   1.205   4.629   4.695
33634SOL    HW2 2910   1.337   4.604   4.627
33635SOL     OW 2911   7.164   8.648   2.460
33635SOL    HW1 2912   7.117   8.601   2.391
33635SOL    HW2 2913   7.104   8.649   2.534
33636SOL     OW 2914   5.791   5.835   5.510
33636SOL    HW1 2915   5.848   5.912   5.507
33636SOL    HW2 2916   5.839   5.772   5.564
33637SOL     OW 2917  10.143   6.607   6.428
33637SOL    HW1 2918  10.143   6.550   6.351
33637SOL    HW2 2919  10.052   6.609   6.456
33638SOL     OW 2920   7.333   8.035   8.347
33638SOL    HW1 2921   7.415   7.986   8.336
33638SOL    HW2 2922   7.266   7.977   8.310
33639SOL     OW 2923   8.381   6.099   6.674
33639SOL    HW1 2924   8.379   6.044   6.595
33639SOL    HW2 2925   8.375   6.188   6.641
33640SOL     OW 2926   1.008   9.800   7.978
33640SOL    HW1 2927   0.997   9.755   8.061
33640SOL    HW2 2928   1.072   9.869   7.996
33641SOL     OW 2929   0.932   2.804   4.938
33641SOL    HW1 2930   0.841   2.781   4.957
33641SOL    HW2 2931   0.933   2.820   4.843
33642SOL     OW 2932  10.395   7.898   1.103
33642SOL    HW1 2933  10.439   7.896   1.188
33642SOL    HW2 2934  10.427   7.820   1.057
33643SOL     OW 2935   2.262   1.083   7.393
33643SOL    HW1 2936   2.267   1.012   7.329
33643SOL    HW2 2937   2.348   1.084   7.435
33644SOL     OW 2938   4.622   4.297   8.810
33644SOL    HW1 2939   4.684   4.350   8.760
33644SOL    HW2 2940   4.539   4.310   8.765
33645SOL     OW 2941   7.881   4.585   5.696
33645SOL    HW1 2942   7.907   4.497   5.666
33645SOL    HW2 2943   7.879   4.637   5.616
33646SOL     OW 2944   5.735   8.846   2.979
33646SOL    HW1 2945   5.735   8.902   2.901
33646SOL    HW2 2946   5.740   8.906   3.053
33647SOL     OW 2947   0.676  10.307   1.343
33647SOL    HW1 2948   0.675  10.365   1.419
33647SOL    HW2 2949   0.623  10.352   1.277
33648SOL     OW 2950   6.474   3.337   9.694
33648SOL    HW1 2951   6.421   3.319   9.616
33648SOL    HW2 2952   6.414   3.380   9.755
33649SOL     OW 2953   8.580   4.286  10.207
33649SOL    HW1 2954   8.524   4.228  10.259
33649SOL    HW2 2955   8.652   4.230  10.178
33650SOL     OW 2956   0.778   2.184   8.798
33650SOL    HW1 2957   0.691   2.151   8.774
33650SOL    HW2 2958   0.779   2.180   8.893
33651SOL     OW 2959   8.592   6.535   4.819
33651SOL    HW1 2960   8.685   6.530   4.843
33651SOL    HW2 2961   8.559   6.446   4.833
33652SOL     OW 2962   4.932   4.447   7.653
33652SOL    HW1 2963   5.000   4.515   7.652
33652SOL    HW2 2964   4.981   4.364   7.648
33653SOL     OW 2965   8.705   8.436  10.609
33653SOL    HW1 2966   8.791   8.432  10.651
33653SOL    HW2 2967   8.670   8.521  10.635
33654SOL     OW 2968   3.951   9.963   2.263
33654SOL    HW1 2969   3.937  10.056   2.246
33654SOL    HW2 2970   3.970   9.926   2.176
33655SOL     OW 2971   1.821   1.876   5.912
33655SOL    HW1 2972   1.753   1.809   5.904
33655SOL    HW2 2973   1.850   1.891   5.822
33656SOL     OW 2974   1.033   7.453   6.752
33656SOL    HW1 2975   0.957   7.452   6.693
33656SOL    HW2 2976   1.086   7.378   6.724
33657SOL     OW 2977   8.074   0.584   1.307
33657SOL    HW1 2978   8.076   0.507   1.364
33657SOL    HW2 2979   8.166   0.599   1.284
33658SOL     OW 2980   7.059   7.060   4.235
33658SOL    HW1 2981   7.034   6.967   4.234
33658SOL    HW2 2982   6.984   7.105   4.197
33659SOL     OW 2983   9.825  10.863   7.763
33659SOL    HW1 2984   9.874  10.938   7.728
33659SOL    HW2 2985   9.889  10.791   7.765
33660SOL     OW 2986   4.683   3.004   5.849
33660SOL    HW1 2987   4.587   3.006   5.848
33660SOL    HW2 2988   4.710   3.090   5.817
33661SOL     OW 2989   7.060   6.950   6.220
33661SOL    HW1 2990   7.060   6.983   6.130
33661SOL    HW2 2991   7.153   6.951   6.245
33662SOL     OW 2992   5.324   8.465   8.584
33662SOL    HW1 2993   5.305   8.444   8.492
33662SOL    HW2 2994   5.324   8.560   8.587
33663SOL     OW 2995   7.567   0.276   3.606
33663SOL    HW1 2996   7.627   0.314   3.541
33663SOL    HW2 2997   7.572   0.181   3.591
33664SOL     OW 2998   7.777   2.290   8.737
33664SOL    HW1 2999   7.850   2.297   8.798
33664SOL    HW2 3000   7.809   2.332   8.657
33665SOL     OW 3001   0.538  10.882   5.479
33665SOL    HW1 3002   0.462  10.861   5.533
33665SOL    HW2 3003   0.536  10.818   5.408
33666SOL     OW 3004   9.918   6.962   0.498
33666SOL    HW1 3005   9.982   6.953   0.568
33666SOL    HW2 3006   9.910   7.056   0.485
33667SOL     OW 3007   4.517   5.382   5.032
33667SOL    HW1 3008   4.550   5.293   5.017
33667SOL    HW2 3009   4.475   5.378   5.118
33668SOL     OW 3010   9.215  10.798   3.881
33668SOL    HW1 3011   9.206  10.757   3.795
33668SOL    HW2 3012   9.231  10.891   3.862
33669SOL     OW 3013   1.825   4.187   4.322
33669SOL    HW1 3014   1.844   4.164   4.413
33669SOL    HW2 3015   1.910   4.212   4.285
33670SOL     OW 3016   7.557   8.903   2.571
33670SOL    HW1 3017   7.575   8.907   2.477
33670SOL    HW2 3018   7.638   8.932   2.612
33671SOL     OW 3019   1.808   4.833   8.263
33671SOL    HW1 3020   1.814   4.738   8.273
33671SOL    HW2 3021   1.765   4.863   8.343
33672SOL     OW 3022  10.410   0.140   2.272
33672SOL    HW1 3023  10.404   0.174   2.361
33672SOL    HW2 3024  10.375   0.051   2.278
33673SOL     OW 3025   7.366   5.264   0.496
33673SOL    HW1 3026   7.360   5.332   0.563
33673SOL    HW2 3027   7.319   5.189   0.533
33674SOL     OW 3028   8.421   5.046   5.606
33674SOL    HW1 3029   8.465   4.986   5.666
33674SOL    HW2 3030   8.387   4.989   5.536
33675SOL     OW 3031   5.066   1.565   6.153
33675SOL    HW1 3032   5.044   1.531   6.239
33675SOL    HW2 3033   5.006   1.638   6.139
33676SOL     OW 3034   9.378   3.756   9.424
33676SOL    HW1 3035   9.412   3.773   9.336
33676SOL    HW2 3036   9.394   3.662   9.438
33677SOL     OW 3037   4.029   3.408  10.294
33677SOL    HW1 3038   4.040   3.313  10.287
33677SOL    HW2 3039   3.967   3.420  10.365
33678SOL     OW 3040  10.088   5.871   7.243
33678SOL    HW1 3041  10.092   5.965   7.228
33678SOL    HW2 3042  10.062   5.861   7.334
33679SOL     OW 3043   9.923   5.086   9.285
33679SOL    HW1 3044   9.952   5.167   9.326
33679SOL    HW2 3045   9.978   5.078   9.207
33680SOL     OW 3046   8.208   8.614   7.232
33680SOL    HW1 3047   8.131   8.626   7.288
33680SOL    HW2 3048   8.274   8.574   7.289
33681SOL     OW 3049  10.581  10.094   6.324
33681SOL    HW1 3050  10.486  10.102   6.320
33681SOL    HW2 3051  10.600  10.013   6.277
33682SOL     OW 3052   7.613   0.836   5.484
33682SOL    HW1 3053   7.563   0.866   5.560
33682SOL    HW2 3054   7.588   0.896   5.413
33683SOL     OW 3055   0.479   1.123   0.558
33683SOL    HW1 3056   0.471   1.155   0.648
33683SOL    HW2 3057   0.486   1.028   0.567
33684SOL     OW 3058   9.574   2.642   0.960
33684SOL    HW1 3059   9.599   2.627   1.051
33684SOL    HW2 3060   9.511   2.572   0.941
33685SOL     OW 3061   8.889   7.357   1.482
33685SOL    HW1 3062   8.802   7.395   1.473
33685SOL    HW2 3063   8.909   7.363   1.575
33686SOL     OW 3064   0.352   3.920   3.209
33686SOL    HW1 3065   0.354   4.005   3.253
33686SOL    HW2 3066   0.444   3.897   3.196
33687SOL     OW 3067  10.362   2.065   8.639
33687SOL    HW1 3068  10.391   2.030   8.723
33687SOL    HW2 3069  10.270   2.040   8.633
33688SOL     OW 3070  10.471   4.954   0.862
33688SOL    HW1 3071  10.536   4.884   0.853
33688SOL    HW2 3072  10.432   4.961   0.775
33689SOL     OW 3073  10.354   0.329  10.750
33689SOL    HW1 3074  10.399   0.293  10.827
33689SOL    HW2 3075  10.332   0.251  10.698
33690SOL     OW 3076   1.916   7.061   0.485
33690SOL    HW1 3077   1.864   7.125   0.532
33690SOL    HW2 3078   1.950   7.108   0.409
33691SOL     OW 3079   3.854   6.798   5.665
33691SOL    HW1 3080   3.944   6.822   5.685
33691SOL    HW2 3081   3.822   6.869   5.610
33692SOL     OW 3082   2.878   8.872   9.426
33692SOL    HW1 3083   2.795   8.856   9.380
33692SOL    HW2 3084   2.868   8.827   9.510
33693SOL     OW 3085   9.123   6.526   2.460
33693SOL    HW1 3086   9.086   6.593   2.403
33693SOL    HW2 3087   9.188   6.572   2.513
33694SOL     OW 3088   8.438  10.361   1.190
33694SOL    HW1 3089   8.376  10.335   1.121
33694SOL    HW2 3090   8.521  10.322   1.162
33695SOL     OW 3091   4.730   2.708   9.843
33695SOL    HW1 3092   4.730   2.708   9.938
33695SOL    HW2 3093   4.823   2.710   9.819
33696SOL     OW 3094  10.628   0.581   1.330
33696SOL    HW1 3095  10.573   0.555   1.256
33696SOL    HW2 3096  10.597   0.527   1.403
33697SOL     OW 3097   5.225   3.108  10.200
33697SOL    HW1 3098   5.181   3.142  10.122
33697SOL    HW2 3099   5.292   3.049  10.165
33698SOL     OW 3100   8.012  10.356   3.458
33698SOL    HW1 3101   8.043  10.324   3.373
33698SOL    HW2 3102   7.921  10.381   3.442
33699SOL     OW 3103   1.201   5.831   7.546
33699SOL    HW1 3104   1.239   5.796   7.465
33699SOL    HW2 3105   1.265   5.810   7.614
33700SOL     OW 3106   1.947   8.076   4.630
33700SOL    HW1 3107   2.039   8.052   4.616
33700SOL    HW2 3108   1.950   8.145   4.696
33701SOL     OW 3109  10.014   5.015   7.883
33701SOL    HW1 3110  10.026   4.939   7.825
33701SOL    HW2 3111  10.093   5.067   7.871
33702SOL     OW 3112   9.255   2.715   8.385
33702SOL    HW1 3113   9.202   2.778   8.337
33702SOL    HW2 3114   9.259   2.638   8.327
33703SOL     OW 3115  10.917   0.369  10.628
33703SOL    HW1 3116  10.868   0.432  10.576
33703SOL    HW2 3117  11.001   0.412  10.646
33704SOL     OW 3118  10.891   4.819   2.978
33704SOL    HW1 3119  10.866   4.905   2.945
33704SOL    HW2 3120  10.905   4.832   3.071
33705SOL     OW 3121  10.744  10.862   8.398
33705SOL    HW1 3122  10.788  10.787   8.437
33705SOL    HW2 3123  10.774  10.862   8.307
33706SOL     OW 3124   6.758   9.458   8.346
33706SOL    HW1 3125   6.806   9.456   8.429
33706SOL    HW2 3126   6.666   9.448   8.370
33707SOL     OW 3127   6.286   6.138   7.139
33707SOL    HW1 3128   6.229   6.187   7.197
33707SOL    HW2 3129   6.227   6.082   7.089
33708SOL     OW 3130   8.493   3.296   1.077
33708SOL    HW1 3131   8.556   3.267   1.143
33708SOL    HW2 3132   8.462   3.381   1.108
33709SOL     OW 3133   2.307   8.132   7.983
33709SOL    HW1 3134   2.314   8.057   8.042
33709SOL    HW2 3135   2.383   8.186   8.004
33710SOL     OW 3136   7.703   5.604   2.489
33710SOL    HW1 3137   7.781   5.553   2.512
33710SOL    HW2 3138   7.644   5.592   2.563
33711SOL     OW 3139   9.967   3.859   6.547
33711SOL    HW1 3140   9.974   3.931   6.484
33711SOL    HW2 3141   9.907   3.797   6.505
33712SOL     OW 3142   7.985   4.767   9.561
33712SOL    HW1 3143   7.968   4.810   9.477
33712SOL    HW2 3144   8.080   4.761   9.566
33713SOL     OW 3145  10.188   8.156  10.873
33713SOL    HW1 3146  10.229   8.242  10.883
33713SOL    HW2 3147  10.108   8.161  10.925
33714SOL     OW 3148   4.499   7.375   5.237
33714SOL    HW1 3149   4.501   7.296   5.292
33714SOL    HW2 3150   4.552   7.439   5.284
33715SOL     OW 3151   8.056   7.360  10.888
33715SOL    HW1 3152   8.086   7.363  10.797
33715SOL    HW2 3153   8.005   7.279  10.893
33716SOL     OW 3154   7.072   4.167   0.415
33716SOL    HW1 3155   7.093   4.174   0.322
33716SOL    HW2 3156   7.006   4.098   0.419
33717SOL     OW 3157   7.695   8.835   2.968
33717SOL    HW1 3158   7.718   8.925   2.946
33717SOL    HW2 3159   7.601   8.829   2.950
33718SOL     OW 3160   6.290   8.744   0.836
33718SOL    HW1 3161   6.223   8.810   0.851
33718SOL    HW2 3162   6.274   8.677   0.903
33719SOL     OW 3163   8.081   8.328   0.079
33719SOL    HW1 3164   7.993   8.364   0.070
33719SOL    HW2 3165   8.105   8.301  -0.009
33720SOL     OW 3166   5.134   7.565  11.020
33720SOL    HW1 3167   5.191   7.516  10.960
33720SOL    HW2 3168   5.119   7.648  10.975
33721SOL     OW 3169   9.145   4.781   6.573
33721SOL    HW1 3170   9.112   4.725   6.643
33721SOL    HW2 3171   9.068   4.829   6.542
33722SOL     OW 3172   6.898   7.842   7.946
33722SOL    HW1 3173   6.979   7.827   7.995
33722SOL    HW2 3174   6.828   7.814   8.005
33723SOL     OW 3175   9.649   5.013   7.240
33723SOL    HW1 3176   9.643   4.940   7.302
33723SOL    HW2 3177   9.673   4.972   7.157
33724SOL     OW 3178   6.175   5.490   3.425
33724SOL    HW1 3179   6.094   5.451   3.456
33724SOL    HW2 3180   6.229   5.500   3.503
33725SOL     OW 3181   2.549  10.497   6.853
33725SOL    HW1 3182   2.633  10.508   6.897
33725SOL    HW2 3183   2.540  10.403   6.841
33726SOL     OW 3184   7.574   5.312   0.326
33726SOL    HW1 3185   7.646   5.249   0.333
33726SOL    HW2 3186   7.517   5.291   0.400
33727SOL     OW 3187   4.380  10.383   6.541
33727SOL    HW1 3188   4.438  10.322   6.587
33727SOL    HW2 3189   4.413  10.383   6.451
33728SOL     OW 3190   5.825   3.155   8.515
33728SOL    HW1 3191   5.796   3.244   8.530
33728SOL    HW2 3192   5.764   3.100   8.565
33729SOL     OW 3193   6.831   5.113   7.904
33729SOL    HW1 3194   6.771   5.093   7.832
33729SOL    HW2 3195   6.902   5.049   7.893
33730SOL     OW 3196   6.689  10.973   4.922
33730SOL    HW1 3197   6.695  10.901   4.859
33730SOL    HW2 3198   6.777  11.012   4.921
33731SOL     OW 3199  10.890   2.553   9.734
33731SOL    HW1 3200  10.938   2.627   9.770
33731SOL    HW2 3201  10.852   2.510   9.810
33732SOL     OW 3202   4.613   1.043  11.003
33732SOL    HW1 3203   4.656   1.092  10.933
33732SOL    HW2 3204   4.678   1.041  11.073
33733SOL     OW 3205   8.678   7.966   2.208
33733SOL    HW1 3206   8.625   8.044   2.221
33733SOL    HW2 3207   8.614   7.895   2.201
33734SOL     OW 3208   0.079   1.316   5.274
33734SOL    HW1 3209   0.076   1.280   5.185
33734SOL    HW2 3210   0.129   1.397   5.265
33735SOL     OW 3211   2.587   1.066   9.769
33735SOL    HW1 3212   2.677   1.099   9.766
33735SOL    HW2 3213   2.537   1.137   9.809
33736SOL     OW 3214   2.241   5.163   2.223
33736SOL    HW1 3215   2.175   5.183   2.289
33736SOL    HW2 3216   2.325   5.173   2.268
33737SOL     OW 3217   5.578   4.267   1.483
33737SOL    HW1 3218   5.490   4.304   1.488
33737SOL    HW2 3219   5.592   4.225   1.568
33738SOL     OW 3220   0.749  10.368  11.044
33738SOL    HW1 3221   0.790  10.393  10.961
33738SOL    HW2 3222   0.691  10.441  11.065
33739SOL     OW 3223   1.164   6.901   9.539
33739SOL    HW1 3224   1.181   6.941   9.624
33739SOL    HW2 3225   1.240   6.925   9.486
33740SOL     OW 3226   8.686   5.971   8.844
33740SOL    HW1 3227   8.750   5.943   8.909
33740SOL    HW2 3228   8.732   5.964   8.760
33741SOL     OW 3229  10.149   8.277   0.899
33741SOL    HW1 3230  10.172   8.220   0.972
33741SOL    HW2 3231  10.141   8.364   0.938
33742SOL     OW 3232   1.429   6.367   4.778
33742SOL    HW1 3233   1.483   6.395   4.852
33742SOL    HW2 3234   1.485   6.305   4.730
33743SOL     OW 3235   8.012   0.196   9.539
33743SOL    HW1 3236   7.999   0.279   9.493
33743SOL    HW2 3237   8.107   0.189   9.549
33744SOL     OW 3238  10.678   5.388   8.654
33744SOL    HW1 3239  10.662   5.447   8.580
33744SOL    HW2 3240  10.761   5.345   8.633
33745SOL     OW 3241   8.524   2.702   0.278
33745SOL    HW1 3242   8.570   2.661   0.351
33745SOL    HW2 3243   8.493   2.785   0.312
33746SOL     OW 3244   6.278   6.368   8.836
33746SOL    HW1 3245   6.306   6.321   8.757
33746SOL    HW2 3246   6.357   6.412   8.866
33747SOL     OW 3247   7.672   1.019   0.939
33747SOL    HW1 3248   7.707   0.953   0.879
33747SOL    HW2 3249   7.635   1.086   0.882
33748SOL     OW 3250   8.396   3.691   7.044
33748SOL    HW1 3251   8.420   3.649   6.961
33748SOL    HW2 3252   8.413   3.624   7.110
33749SOL     OW 3253   9.169   0.118   0.296
33749SOL    HW1 3254   9.209   0.061   0.230
33749SOL    HW2 3255   9.078   0.127   0.268
33750SOL     OW 3256   4.152   4.801  10.921
33750SOL    HW1 3257   4.068   4.809  10.876
33750SOL    HW2 3258   4.158   4.880  10.975
33751SOL     OW 3259   3.786   3.102   1.558
33751SOL    HW1 3260   3.750   3.037   1.619
33751SOL    HW2 3261   3.759   3.071   1.471
33752SOL     OW 3262   2.164   5.219   2.460
33752SOL    HW1 3263   2.074   5.251   2.462
33752SOL    HW2 3264   2.158   5.129   2.492
33753SOL     OW 3265   1.585   5.348   9.309
33753SOL    HW1 3266   1.636   5.418   9.348
33753SOL    HW2 3267   1.547   5.301   9.383
33754SOL     OW 3268   5.664  10.739   7.559
33754SOL    HW1 3269   5.584  10.692   7.535
33754SOL    HW2 3270   5.729  10.709   7.495
33755SOL     OW 3271   6.183   9.324   4.857
33755SOL    HW1 3272   6.223   9.277   4.930
33755SOL    HW2 3273   6.172   9.414   4.888
33756SOL     OW 3274   4.315   0.931   1.913
33756SOL    HW1 3275   4.315   0.844   1.873
33756SOL    HW2 3276   4.388   0.976   1.871
33757SOL     OW 3277   9.571   6.722   7.131
33757SOL    HW1 3278   9.641   6.738   7.068
33757SOL    HW2 3279   9.569   6.626   7.141
33758SOL     OW 3280   7.508   5.779   8.728
33758SOL    HW1 3281   7.546   5.704   8.773
33758SOL    HW2 3282   7.486   5.745   8.641
33759SOL     OW 3283   7.781   7.885   5.222
33759SOL    HW1 3284   7.737   7.860   5.303
33759SOL    HW2 3285   7.798   7.801   5.178
33760SOL     OW 3286   3.757   2.871   7.931
33760SOL    HW1 3287   3.813   2.949   7.935
33760SOL    HW2 3288   3.816   2.801   7.901
33761SOL     OW 3289   1.737   2.378   0.995
33761SOL    HW1 3290   1.787   2.345   1.069
33761SOL    HW2 3291   1.802   2.423   0.941
33762SOL     OW 3292   0.500   5.457   3.522
33762SOL    HW1 3293   0.496   5.545   3.484
33762SOL    HW2 3294   0.513   5.399   3.446
33763SOL     OW 3295   8.579   4.815   9.604
33763SOL    HW1 3296   8.547   4.879   9.667
33763SOL    HW2 3297   8.653   4.858   9.561
33764SOL     OW 3298   1.509  10.849   1.079
33764SOL    HW1 3299   1.553  10.799   1.010
33764SOL    HW2 3300   1.579  10.872   1.140
33765SOL     OW 3301  10.063   4.514   4.825
33765SOL    HW1 3302  10.077   4.579   4.893
33765SOL    HW2 3303  10.135   4.528   4.763
33766SOL     OW 3304   3.344   5.779   8.360
33766SOL    HW1 3305   3.310   5.740   8.440
33766SOL    HW2 3306   3.282   5.752   8.292
33767SOL     OW 3307   6.678   2.100   5.932
33767SOL    HW1 3308   6.727   2.170   5.975
33767SOL    HW2 3309   6.590   2.106   5.969
33768SOL     OW 3310   7.185   5.389   2.624
33768SOL    HW1 3311   7.196   5.483   2.609
33768SOL    HW2 3312   7.091   5.375   2.619
33769SOL     OW 3313   3.492   9.778   7.994
33769SOL    HW1 3314   3.564   9.715   7.981
33769SOL    HW2 3315   3.504   9.810   8.083
33770SOL     OW 3316   1.839   3.983   0.720
33770SOL    HW1 3317   1.886   3.903   0.697
33770SOL    HW2 3318   1.761   3.982   0.664
33771SOL     OW 3319   7.577   5.635   9.441
33771SOL    HW1 3320   7.646   5.688   9.481
33771SOL    HW2 3321   7.527   5.601   9.515
33772SOL     OW 3322   9.729   3.591   9.510
33772SOL    HW1 3323   9.748   3.536   9.586
33772SOL    HW2 3324   9.635   3.581   9.496
33773SOL     OW 3325   8.098   6.412  10.735
33773SOL    HW1 3326   8.153   6.433  10.659
33773SOL    HW2 3327   8.158   6.371  10.797
33774SOL     OW 3328   2.155   7.674  10.550
33774SOL    HW1 3329   2.122   7.751  10.596
33774SOL    HW2 3330   2.233   7.705  10.504
33775SOL     OW 3331   3.100   2.617   6.653
33775SOL    HW1 3332   3.064   2.565   6.581
33775SOL    HW2 3333   3.193   2.627   6.631
33776SOL     OW 3334   9.918   4.980   2.192
33776SOL    HW1 3335   9.914   5.055   2.133
33776SOL    HW2 3336   9.895   4.905   2.136
33777SOL     OW 3337   9.488   7.688   6.959
33777SOL    HW1 3338   9.564   7.746   6.952
33777SOL    HW2 3339   9.501   7.641   7.041
33778SOL     OW 3340   8.471   3.901  10.133
33778SOL    HW1 3341   8.382   3.903  10.167
33778SOL    HW2 3342   8.473   3.970  10.067
33779SOL     OW 3343   5.343   0.519   6.500
33779SOL    HW1 3344   5.279   0.453   6.474
33779SOL    HW2 3345   5.403   0.472   6.558
33780SOL     OW 3346   8.782   2.199   0.766
33780SOL    HW1 3347   8.738   2.281   0.743
33780SOL    HW2 3348   8.781   2.196   0.861
33781SOL     OW 3349   3.866   5.021   3.568
33781SOL    HW1 3350   3.821   4.939   3.545
33781SOL    HW2 3351   3.876   5.017   3.663
33782SOL     OW 3352   4.018   8.113   5.517
33782SOL    HW1 3353   4.061   8.138   5.598
33782SOL    HW2 3354   3.927   8.099   5.541
33783SOL     OW 3355   0.451   9.849   0.406
33783SOL    HW1 3356   0.367   9.839   0.361
33783SOL    HW2 3357   0.428   9.866   0.497
33784SOL     OW 3358   9.976   5.613   9.381
33784SOL    HW1 3359  10.011   5.698   9.354
33784SOL    HW2 3360   9.978   5.560   9.301
33785SOL     OW 3361   8.282   7.488  11.035
33785SOL    HW1 3362   8.196   7.487  10.993
33785SOL    HW2 3363   8.294   7.398  11.067
33786SOL     OW 3364   0.685   5.675   6.619
33786SOL    HW1 3365   0.746   5.606   6.593
33786SOL    HW2 3366   0.696   5.683   6.713
33787SOL     OW 3367   3.560   1.413  10.648
33787SOL    HW1 3368   3.544   1.506  10.662
33787SOL    HW2 3369   3.478   1.371  10.672
33788SOL     OW 3370   0.786   1.325   6.402
33788SOL    HW1 3371   0.754   1.302   6.489
33788SOL    HW2 3372   0.767   1.247   6.349
33789SOL     OW 3373   7.055   5.146   8.139
33789SOL    HW1 3374   6.969   5.156   8.180
33789SOL    HW2 3375   7.115   5.130   8.212
33790SOL     OW 3376   5.408   0.678   2.889
33790SOL    HW1 3377   5.448   0.667   2.975
33790SOL    HW2 3378   5.441   0.604   2.837
33791SOL     OW 3379   1.091  10.445   8.544
33791SOL    HW1 3380   1.110  10.420   8.453
33791SOL    HW2 3381   1.160  10.507   8.566
33792SOL     OW 3382   0.262   6.906   7.323
33792SOL    HW1 3383   0.333   6.965   7.299
33792SOL    HW2 3384   0.208   6.956   7.383
33793SOL     OW 3385  10.203   0.547   8.758
33793SOL    HW1 3386  10.244   0.578   8.839
33793SOL    HW2 3387  10.226   0.613   8.692
33794SOL     OW 3388   4.385   7.107   8.182
33794SOL    HW1 3389   4.302   7.066   8.159
33794SOL    HW2 3390   4.364   7.165   8.254
33795SOL     OW 3391   3.615   7.504   9.981
33795SOL    HW1 3392   3.636   7.514   9.888
33795SOL    HW2 3393   3.611   7.593  10.015
33796SOL     OW 3394   1.340   2.823   6.567
33796SOL    HW1 3395   1.379   2.898   6.611
33796SOL    HW2 3396   1.408   2.794   6.505
33797SOL     OW 3397   7.528   9.636   8.848
33797SOL    HW1 3398   7.468   9.599   8.912
33797SOL    HW2 3399   7.555   9.561   8.794
33798SOL     OW 3400   7.531   7.278   6.818
33798SOL    HW1 3401   7.585   7.267   6.739
33798SOL    HW2 3402   7.456   7.220   6.803
33799SOL     OW 3403   3.728   4.540   7.742
33799SOL    HW1 3404   3.755   4.448   7.743
33799SOL    HW2 3405   3.649   4.540   7.688
33800SOL     OW 3406   6.533   1.324   0.292
33800SOL    HW1 3407   6.562   1.389   0.356
33800SOL    HW2 3408   6.605   1.261   0.288
33801SOL     OW 3409   0.044   6.530  10.943
33801SOL    HW1 3410   0.116   6.501  10.887
33801SOL    HW2 3411  -0.030   6.476  10.915
33802SOL     OW 3412   8.496   7.013  10.886
33802SOL    HW1 3413   8.532   7.050  10.966
33802SOL    HW2 3414   8.541   6.929  10.875
33803SOL     OW 3415   4.918   6.607   9.904
33803SOL    HW1 3416   4.837   6.644   9.870
33803SOL    HW2 3417   4.985   6.636   9.842
33804SOL     OW 3418   6.172  10.672   2.255
33804SOL    HW1 3419   6.156  10.741   2.191
33804SOL    HW2 3420   6.174  10.592   2.203
33805SOL     OW 3421   7.332   6.834   3.058
33805SOL    HW1 3422   7.273   6.832   2.982
33805SOL    HW2 3423   7.403   6.892   3.031
33806SOL     OW 3424   6.305   7.094   0.309
33806SOL    HW1 3425   6.314   7.015   0.363
33806SOL    HW2 3426   6.333   7.165   0.366
33807SOL     OW 3427   7.995   4.503   2.086
33807SOL    HW1 3428   8.053   4.525   2.013
33807SOL    HW2 3429   7.908   4.501   2.047
33808SOL     OW 3430   9.331   4.799   7.769
33808SOL    HW1 3431   9.366   4.752   7.693
33808SOL    HW2 3432   9.292   4.730   7.823
33809SOL     OW 3433   1.288   3.186   8.563
33809SOL    HW1 3434   1.336   3.188   8.646
33809SOL    HW2 3435   1.255   3.096   8.557
33810SOL     OW 3436  11.074   4.438   3.144
33810SOL    HW1 3437  11.120   4.395   3.216
33810SOL    HW2 3438  11.000   4.483   3.185
33811SOL     OW 3439   9.321   2.099   8.729
33811SOL    HW1 3440   9.229   2.087   8.752
33811SOL    HW2 3441   9.370   2.054   8.798
33812SOL     OW 3442   8.684   9.437   6.908
33812SOL    HW1 3443   8.624   9.445   6.833
33812SOL    HW2 3444   8.771   9.438   6.869
33813SOL     OW 3445   9.369   7.041   6.554
33813SOL    HW1 3446   9.349   7.059   6.462
33813SOL    HW2 3447   9.353   7.124   6.599
33814SOL     OW 3448   1.245   0.019   1.631
33814SOL    HW1 3449   1.162  -0.026   1.644
33814SOL    HW2 3450   1.311  -0.043   1.662
33815SOL     OW 3451   9.265   5.963   9.357
33815SOL    HW1 3452   9.301   6.046   9.387
33815SOL    HW2 3453   9.259   5.909   9.436
33816SOL     OW 3454   8.975   7.804   1.036
33816SOL    HW1 3455   8.899   7.843   0.992
33816SOL    HW2 3456   9.027   7.878   1.065
33817SOL     OW 3457   0.874   9.297   3.201
33817SOL    HW1 3458   0.931   9.235   3.247
33817SOL    HW2 3459   0.786   9.262   3.214
33818SOL     OW 3460   7.717   6.472   9.565
33818SOL    HW1 3461   7.698   6.406   9.498
33818SOL    HW2 3462   7.639   6.527   9.568
33819SOL     OW 3463   0.698   5.832   1.110
33819SOL    HW1 3464   0.668   5.912   1.067
33819SOL    HW2 3465   0.702   5.855   1.203
33820SOL     OW 3466   0.335   6.648   7.320
33820SOL    HW1 3467   0.312   6.739   7.303
33820SOL    HW2 3468   0.305   6.601   7.242
33821SOL     OW 3469   4.263   5.948   1.790
33821SOL    HW1 3470   4.231   5.866   1.751
33821SOL    HW2 3471   4.312   5.920   1.867
33822SOL     OW 3472   3.887   6.420   1.950
33822SOL    HW1 3473   3.947   6.484   1.987
33822SOL    HW2 3474   3.875   6.355   2.019
33823SOL     OW 3475   6.841   0.120   9.889
33823SOL    HW1 3476   6.915   0.179   9.902
33823SOL    HW2 3477   6.809   0.102   9.977
33824SOL     OW 3478   8.887   9.712   6.895
33824SOL    HW1 3479   8.900   9.630   6.846
33824SOL    HW2 3480   8.961   9.766   6.869
33825SOL     OW 3481   1.563   8.926   3.315
33825SOL    HW1 3482   1.513   9.007   3.304
33825SOL    HW2 3483   1.633   8.949   3.376
33826SOL     OW 3484   7.553   7.947   1.981
33826SOL    HW1 3485   7.521   7.967   1.893
33826SOL    HW2 3486   7.606   7.868   1.969
33827SOL     OW 3487   3.406   1.846   1.023
33827SOL    HW1 3488   3.333   1.868   1.080
33827SOL    HW2 3489   3.472   1.809   1.081
33828SOL     OW 3490   9.787   5.044  10.884
33828SOL    HW1 3491   9.822   5.112  10.942
33828SOL    HW2 3492   9.859   4.982  10.874
33829SOL     OW 3493   7.103   8.446  10.130
33829SOL    HW1 3494   7.181   8.394  10.151
33829SOL    HW2 3495   7.034   8.410  10.186
33830SOL     OW 3496  10.001   6.908   9.268
33830SOL    HW1 3497  10.077   6.849   9.272
33830SOL    HW2 3498  10.028   6.985   9.318
33831SOL     OW 3499   8.099   8.869   8.498
33831SOL    HW1 3500   8.148   8.789   8.520
33831SOL    HW2 3501   8.166   8.937   8.496
33832SOL     OW 3502   0.987   1.428   9.428
33832SOL    HW1 3503   1.008   1.336   9.444
33832SOL    HW2 3504   1.037   1.476   9.494
33833SOL     OW 3505   4.818   9.099   5.697
33833SOL    HW1 3506   4.883   9.168   5.685
33833SOL    HW2 3507   4.870   9.019   5.705
33834SOL     OW 3508   2.779   8.518   2.862
33834SOL    HW1 3509   2.817   8.543   2.946
33834SOL    HW2 3510   2.686   8.537   2.870
33835SOL     OW 3511   0.972   8.316   6.110
33835SOL    HW1 3512   0.988   8.280   6.197
33835SOL    HW2 3513   1.043   8.378   6.096
33836SOL     OW 3514   0.425   4.799   6.393
33836SOL    HW1 3515   0.365   4.828   6.324
33836SOL    HW2 3516   0.496   4.863   6.392
33837SOL     OW 3517   9.514   7.404   7.127
33837SOL    HW1 3518   9.457   7.366   7.194
33837SOL    HW2 3519   9.525   7.333   7.063
33838SOL     OW 3520   7.489   3.711   1.379
33838SOL    HW1 3521   7.475   3.775   1.309
33838SOL    HW2 3522   7.454   3.629   1.344
33839SOL     OW 3523   8.189   3.933   9.865
33839SOL    HW1 3524   8.158   3.877   9.936
33839SOL    HW2 3525   8.283   3.942   9.881
33840SOL     OW 3526   9.806   0.161   3.607
33840SOL    HW1 3527   9.884   0.211   3.582
33840SOL    HW2 3528   9.807   0.085   3.548
33841SOL     OW 3529   7.912   2.227   5.700
33841SOL    HW1 3530   7.997   2.200   5.735
33841SOL    HW2 3531   7.932   2.262   5.613
33842SOL     OW 3532   9.143   7.401   3.495
33842SOL    HW1 3533   9.140   7.312   3.459
33842SOL    HW2 3534   9.097   7.394   3.578
33843SOL     OW 3535   4.239   3.571   8.718
33843SOL    HW1 3536   4.222   3.477   8.707
33843SOL    HW2 3537   4.323   3.585   8.673
33844SOL     OW 3538   5.882   5.585   8.769
33844SOL    HW1 3539   5.860   5.598   8.861
33844SOL    HW2 3540   5.807   5.539   8.732
33845SOL     OW 3541  10.120   5.207   6.355
33845SOL    HW1 3542  10.204   5.248   6.374
33845SOL    HW2 3543  10.087   5.255   6.279
33846SOL     OW 3544   7.922   1.912   1.808
33846SOL    HW1 3545   7.899   1.994   1.764
33846SOL    HW2 3546   7.842   1.859   1.804
33847SOL     OW 3547   5.712   7.578   0.381
33847SOL    HW1 3548   5.660   7.658   0.372
33847SOL    HW2 3549   5.726   7.569   0.475
33848SOL     OW 3550   5.756   8.620   2.130
33848SOL    HW1 3551   5.785   8.683   2.064
33848SOL    HW2 3552   5.822   8.550   2.127
33849SOL     OW 3553   9.041  10.354   1.377
33849SOL    HW1 3554   8.990  10.273   1.373
33849SOL    HW2 3555   9.042  10.377   1.470
33850SOL     OW 3556  10.112   8.065   2.301
33850SOL    HW1 3557  10.045   8.104   2.357
33850SOL    HW2 3558  10.184   8.128   2.303
33851SOL     OW 3559   2.738   6.569   2.216
33851SOL    HW1 3560   2.728   6.553   2.310
33851SOL    HW2 3561   2.819   6.524   2.192
33852SOL     OW 3562   9.188   7.358   1.262
33852SOL    HW1 3563   9.101   7.373   1.225
33852SOL    HW2 3564   9.215   7.273   1.227
33853SOL     OW 3565   0.632   1.437  11.088
33853SOL    HW1 3566   0.720   1.404  11.070
33853SOL    HW2 3567   0.645   1.505  11.154
33854SOL     OW 3568   4.212   5.576   8.574
33854SOL    HW1 3569   4.283   5.606   8.517
33854SOL    HW2 3570   4.208   5.481   8.560
33855SOL     OW 3571   9.448   5.892   9.174
33855SOL    HW1 3572   9.527   5.945   9.183
33855SOL    HW2 3573   9.397   5.910   9.253
33856SOL     OW 3574  10.223   5.176   5.092
33856SOL    HW1 3575  10.242   5.268   5.108
33856SOL    HW2 3576  10.135   5.175   5.055
33857SOL     OW 3577   4.589   2.047   5.640
33857SOL    HW1 3578   4.626   2.100   5.710
33857SOL    HW2 3579   4.631   2.080   5.560
33858SOL     OW 3580   7.342   8.586   2.036
33858SOL    HW1 3581   7.260   8.572   2.083
33858SOL    HW2 3582   7.321   8.567   1.944
33859SOL     OW 3583   5.189   7.326  10.487
33859SOL    HW1 3584   5.193   7.371  10.402
33859SOL    HW2 3585   5.121   7.260  10.475
33860SOL     OW 3586   8.266   7.576   8.600
33860SOL    HW1 3587   8.225   7.582   8.513
33860SOL    HW2 3588   8.239   7.490   8.634
33861SOL     OW 3589   5.175  11.000  10.304
33861SOL    HW1 3590   5.144  11.086  10.331
33861SOL    HW2 3591   5.175  10.948  10.384
33862SOL     OW 3592   6.335   5.796   3.727
33862SOL    HW1 3593   6.371   5.851   3.797
33862SOL    HW2 3594   6.243   5.784   3.749
33863SOL     OW 3595   6.998   7.725  11.085
33863SOL    HW1 3596   6.961   7.645  11.123
33863SOL    HW2 3597   7.006   7.705  10.991
33864SOL     OW 3598   0.306   6.559   5.988
33864SOL    HW1 3599   0.271   6.471   5.974
33864SOL    HW2 3600   0.282   6.580   6.078
33865SOL     OW 3601   7.584   2.916   9.871
33865SOL    HW1 3602   7.529   2.913   9.949
33865SOL    HW2 3603   7.556   2.995   9.825
33866SOL     OW 3604   2.245   0.367  10.388
33866SOL    HW1 3605   2.191   0.338  10.314
33866SOL    HW2 3606   2.275   0.454  10.363
33867SOL     OW 3607   1.067   7.458   8.576
33867SOL    HW1 3608   1.118   7.377   8.564
33867SOL    HW2 3609   1.077   7.505   8.493
33868SOL     OW 3610   1.802   4.501   8.356
33868SOL    HW1 3611   1.897   4.486   8.359
33868SOL    HW2 3612   1.783   4.550   8.436
33869SOL     OW 3613   7.867   2.878   1.533
33869SOL    HW1 3614   7.887   2.935   1.459
33869SOL    HW2 3615   7.884   2.931   1.610
33870SOL     OW 3616   8.389   2.384   2.050
33870SOL    HW1 3617   8.412   2.473   2.075
33870SOL    HW2 3618   8.371   2.339   2.133
33871SOL     OW 3619   6.547   1.359   1.182
33871SOL    HW1 3620   6.582   1.270   1.173
33871SOL    HW2 3621   6.580   1.405   1.105
33872SOL     OW 3622   2.042   5.948   0.317
33872SOL    HW1 3623   1.955   5.988   0.321
33872SOL    HW2 3624   2.046   5.889   0.393
33873SOL     OW 3625   8.404   6.346   0.406
33873SOL    HW1 3626   8.438   6.354   0.495
33873SOL    HW2 3627   8.344   6.271   0.410
33874SOL     OW 3628   2.955   5.111   6.742
33874SOL    HW1 3629   2.918   5.027   6.770
33874SOL    HW2 3630   2.963   5.162   6.822
33875SOL     OW 3631   7.073   2.093   6.331
33875SOL    HW1 3632   7.048   2.134   6.413
33875SOL    HW2 3633   7.166   2.072   6.342
33876SOL     OW 3634  10.327   0.261  10.066
33876SOL    HW1 3635  10.408   0.306  10.091
33876SOL    HW2 3636  10.264   0.287  10.132
33877SOL     OW 3637   1.711   3.671  10.582
33877SOL    HW1 3638   1.736   3.638  10.495
33877SOL    HW2 3639   1.654   3.603  10.617
33878SOL     OW 3640   7.978   5.119   2.952
33878SOL    HW1 3641   7.883   5.126   2.952
33878SOL    HW2 3642   8.007   5.174   3.025
33879SOL     OW 3643   4.508   1.218   2.925
33879SOL    HW1 3644   4.584   1.276   2.919
33879SOL    HW2 3645   4.432   1.276   2.919
33880SOL     OW 3646   4.347   9.194   8.889
33880SOL    HW1 3647   4.406   9.235   8.952
33880SOL    HW2 3648   4.270   9.171   8.940
33881SOL     OW 3649   8.524   9.921   3.832
33881SOL    HW1 3650   8.592   9.963   3.884
33881SOL    HW2 3651   8.442   9.946   3.873
33882SOL     OW 3652   2.552   3.326  10.121
33882SOL    HW1 3653   2.497   3.284  10.055
33882SOL    HW2 3654   2.500   3.322  10.201
33883SOL     OW 3655  10.744   2.026   1.052
33883SOL    HW1 3656  10.749   2.118   1.028
33883SOL    HW2 3657  10.809   2.015   1.121
33884SOL     OW 3658   9.431   3.397   0.214
33884SOL    HW1 3659   9.414   3.434   0.300
33884SOL    HW2 3660   9.409   3.304   0.223
33885SOL     OW 3661   9.973   3.216   3.418
33885SOL    HW1 3662   9.886   3.187   3.445
33885SOL    HW2 3663   9.958   3.265   3.337
33886SOL     OW 3664   7.072   9.188   5.437
33886SOL    HW1 3665   7.067   9.254   5.368
33886SOL    HW2 3666   7.158   9.148   5.425
33887SOL     OW 3667   2.967   8.467   5.024
33887SOL    HW1 3668   2.985   8.545   4.971
33887SOL    HW2 3669   2.873   8.470   5.042
33888SOL     OW 3670   6.413   0.854   6.537
33888SOL    HW1 3671   6.495   0.904   6.540
33888SOL    HW2 3672   6.344   0.920   6.543
33889SOL     OW 3673   1.383   6.803   8.508
33889SOL    HW1 3674   1.469   6.763   8.520
33889SOL    HW2 3675   1.380   6.874   8.571
33890SOL     OW 3676  11.041   4.844   1.612
33890SOL    HW1 3677  10.966   4.785   1.620
33890SOL    HW2 3678  11.117   4.789   1.632
33891SOL     OW 3679   1.241  10.855   9.212
33891SOL    HW1 3680   1.258  10.903   9.131
33891SOL    HW2 3681   1.201  10.919   9.270
33892SOL     OW 3682   8.759   6.956   4.408
33892SOL    HW1 3683   8.704   7.018   4.360
33892SOL    HW2 3684   8.753   6.875   4.357
33893SOL     OW 3685   3.460   5.890   9.391
33893SOL    HW1 3686   3.448   5.981   9.365
33893SOL    HW2 3687   3.371   5.857   9.406
33894SOL     OW 3688   1.965   3.138   5.018
33894SOL    HW1 3689   1.932   3.119   5.106
33894SOL    HW2 3690   2.055   3.167   5.032
33895SOL     OW 3691   6.503  10.085   6.389
33895SOL    HW1 3692   6.549  10.169   6.382
33895SOL    HW2 3693   6.524  10.053   6.476
33896SOL     OW 3694   1.804   5.744   2.519
33896SOL    HW1 3695   1.893   5.712   2.534
33896SOL    HW2 3696   1.764   5.677   2.463
33897SOL     OW 3697   8.084   0.488   5.753
33897SOL    HW1 3698   8.043   0.526   5.675
33897SOL    HW2 3699   8.020   0.424   5.785
33898SOL     OW 3700   9.648   7.781   8.891
33898SOL    HW1 3701   9.720   7.758   8.832
33898SOL    HW2 3702   9.691   7.817   8.968
33899SOL     OW 3703   9.227   4.565   1.813
33899SOL    HW1 3704   9.149   4.516   1.787
33899SOL    HW2 3705   9.235   4.634   1.747
33900SOL     OW 3706   9.815   5.623   1.620
33900SOL    HW1 3707   9.871   5.681   1.569
33900SOL    HW2 3708   9.854   5.536   1.609
33901SOL     OW 3709   1.664   5.584   3.163
33901SOL    HW1 3710   1.645   5.490   3.162
33901SOL    HW2 3711   1.626   5.616   3.081
33902SOL     OW 3712   0.126   9.676   9.890
33902SOL    HW1 3713   0.084   9.737   9.950
33902SOL    HW2 3714   0.137   9.725   9.809
33903SOL     OW 3715  10.368   5.624  10.708
33903SOL    HW1 3716  10.423   5.580  10.642
33903SOL    HW2 3717  10.398   5.715  10.708
33904SOL     OW 3718   3.161   0.762   0.762
33904SOL    HW1 3719   3.134   0.853   0.775
33904SOL    HW2 3720   3.090   0.723   0.711
33905SOL     OW 3721   7.027   8.479   1.873
33905SOL    HW1 3722   7.111   8.503   1.834
33905SOL    HW2 3723   7.044   8.477   1.967
33906SOL     OW 3724   6.985   9.037   1.097
33906SOL    HW1 3725   6.932   8.986   1.036
33906SOL    HW2 3726   7.053   9.077   1.042
33907SOL     OW 3727   9.918   8.240   4.369
33907SOL    HW1 3728   9.869   8.321   4.382
33907SOL    HW2 3729   9.974   8.258   4.293
33908SOL     OW 3730   0.044   5.503   7.867
33908SOL    HW1 3731   0.002   5.527   7.949
33908SOL    HW2 3732   0.098   5.579   7.844
33909SOL     OW 3733  10.228   1.443   4.826
33909SOL    HW1 3734  10.260   1.404   4.907
33909SOL    HW2 3735  10.286   1.518   4.810
33910SOL     OW 3736   6.941   8.885  10.990
33910SOL    HW1 3737   6.974   8.914  11.075
33910SOL    HW2 3738   6.993   8.807  10.969
33911SOL     OW 3739  10.156   4.534   0.086
33911SOL    HW1 3740  10.183   4.552   0.176
33911SOL    HW2 3741  10.063   4.557   0.084
33912SOL     OW 3742   4.240   6.595   0.094
33912SOL    HW1 3743   4.195   6.598   0.179
33912SOL    HW2 3744   4.293   6.674   0.092
33913SOL     OW 3745   7.661   2.037   8.685
33913SOL    HW1 3746   7.735   2.090   8.713
33913SOL    HW2 3747   7.671   2.030   8.590
33914SOL     OW 3748   5.589   9.446   8.580
33914SOL    HW1 3749   5.608   9.516   8.642
33914SOL    HW2 3750   5.602   9.365   8.630
33915SOL     OW 3751   9.527   8.982   7.715
33915SOL    HW1 3752   9.536   9.046   7.785
33915SOL    HW2 3753   9.514   9.034   7.636
33916SOL     OW 3754   1.335   7.660   1.810
33916SOL    HW1 3755   1.273   7.723   1.847
33916SOL    HW2 3756   1.331   7.585   1.869
33917SOL     OW 3757   2.183   5.230   7.927
33917SOL    HW1 3758   2.271   5.258   7.951
33917SOL    HW2 3759   2.131   5.246   8.005
33918SOL     OW 3760  10.072   5.231   8.184
33918SOL    HW1 3761  10.030   5.172   8.121
33918SOL    HW2 3762  10.140   5.276   8.133
33919SOL     OW 3763   1.026   2.572  10.730
33919SOL    HW1 3764   1.028   2.654  10.778
33919SOL    HW2 3765   1.053   2.506  10.794
33920SOL     OW 3766   8.128   6.109   1.806
33920SOL    HW1 3767   8.067   6.037   1.823
33920SOL    HW2 3768   8.159   6.135   1.892
33921SOL     OW 3769   8.846   2.645   3.013
33921SOL    HW1 3770   8.819   2.556   2.989
33921SOL    HW2 3771   8.890   2.634   3.097
33922SOL     OW 3772   7.414  10.595  10.897
33922SOL    HW1 3773   7.490  10.638  10.858
33922SOL    HW2 3774   7.403  10.637  10.982
33923SOL     OW 3775   9.139   9.817  10.574
33923SOL    HW1 3776   9.056   9.839  10.532
33923SOL    HW2 3777   9.167   9.736  10.531
33924SOL     OW 3778  10.126   3.174   0.081
33924SOL    HW1 3779  10.199   3.186   0.021
33924SOL    HW2 3780  10.167   3.164   0.167
33925SOL     OW 3781   9.929   9.358   9.165
33925SOL    HW1 3782  10.004   9.408   9.197
33925SOL    HW2 3783   9.891   9.413   9.096
33926SOL     OW 3784   2.909   3.118   1.806
33926SOL    HW1 3785   2.871   3.140   1.891
33926SOL    HW2 3786   2.861   3.172   1.743
33927SOL     OW 3787   6.761   0.024   9.642
33927SOL    HW1 3788   6.776   0.060   9.729
33927SOL    HW2 3789   6.672   0.050   9.620
33928SOL     OW 3790   1.185   0.256   9.548
33928SOL    HW1 3791   1.093   0.278   9.557
33928SOL    HW2 3792   1.185   0.162   9.530
33929SOL     OW 3793   7.090   1.966   8.002
33929SOL    HW1 3794   7.123   1.891   8.051
33929SOL    HW2 3795   7.140   1.964   7.920
33930SOL     OW 3796   0.624   5.951   4.781
33930SOL    HW1 3797   0.540   5.989   4.756
33930SOL    HW2 3798   0.684   5.979   4.712
33931SOL     OW 3799   8.441   9.341  10.408
33931SOL    HW1 3800   8.403   9.400  10.343
33931SOL    HW2 3801   8.534   9.335  10.384
33932SOL     OW 3802   7.924   4.192  10.842
33932SOL    HW1 3803   7.931   4.214  10.749
33932SOL    HW2 3804   7.938   4.274  10.888
33933SOL     OW 3805   0.949   9.612   6.084
33933SOL    HW1 3806   0.909   9.537   6.128
33933SOL    HW2 3807   0.875   9.663   6.052
33934SOL     OW 3808   0.482   7.539   6.908
33934SOL    HW1 3809   0.436   7.456   6.893
33934SOL    HW2 3810   0.415   7.599   6.940
33935SOL     OW 3811   8.188   7.791   8.302
33935SOL    HW1 3812   8.259   7.736   8.269
33935SOL    HW2 3813   8.218   7.880   8.287
33936SOL     OW 3814   5.451   7.616   9.715
33936SOL    HW1 3815   5.394   7.637   9.789
33936SOL    HW2 3816   5.466   7.521   9.722
33937SOL     OW 3817   6.245   5.733   6.200
33937SOL    HW1 3818   6.163   5.770   6.233
33937SOL    HW2 3819   6.276   5.797   6.136
33938SOL     OW 3820   2.922   3.842   0.793
33938SOL    HW1 3821   2.939   3.781   0.865
33938SOL    HW2 3822   2.979   3.917   0.810
33939SOL     OW 3823   9.078   9.261   5.586
33939SOL    HW1 3824   9.163   9.301   5.603
33939SOL    HW2 3825   9.041   9.245   5.672
33940SOL     OW 3826  10.405  10.695   7.239
33940SOL    HW1 3827  10.366  10.722   7.156
33940SOL    HW2 3828  10.459  10.770   7.266
33941SOL     OW 3829   8.348   6.132  10.525
33941SOL    HW1 3830   8.319   6.137  10.616
33941SOL    HW2 3831   8.427   6.186  10.522
33942SOL     OW 3832   2.071   5.724  11.088
33942SOL    HW1 3833   2.137   5.780  11.129
33942SOL    HW2 3834   2.045   5.771  11.009
33943SOL     OW 3835   6.512   8.207   6.888
33943SOL    HW1 3836   6.561   8.141   6.838
33943SOL    HW2 3837   6.490   8.163   6.970
33944SOL     OW 3838   9.182   9.683   3.161
33944SOL    HW1 3839   9.131   9.602   3.154
33944SOL    HW2 3840   9.140   9.732   3.231
33945SOL     OW 3841   1.021   0.872   0.359
33945SOL    HW1 3842   0.932   0.897   0.384
33945SOL    HW2 3843   1.028   0.898   0.267
33946SOL     OW 3844   4.522   5.471   2.451
33946SOL    HW1 3845   4.451   5.500   2.394
33946SOL    HW2 3846   4.570   5.551   2.473
33947SOL     OW 3847   8.625   7.419   1.477
33947SOL    HW1 3848   8.569   7.398   1.552
33947SOL    HW2 3849   8.593   7.362   1.407
33948SOL     OW 3850   3.731   6.032   2.269
33948SOL    HW1 3851   3.689   6.022   2.354
33948SOL    HW2 3852   3.761   5.943   2.247
33949SOL     OW 3853   4.493   8.888   9.554
33949SOL    HW1 3854   4.477   8.929   9.639
33949SOL    HW2 3855   4.412   8.900   9.505
33950SOL     OW 3856   0.206  10.187   9.844
33950SOL    HW1 3857   0.130  10.173   9.787
33950SOL    HW2 3858   0.168  10.207   9.930
33951SOL     OW 3859   8.067   0.106   1.936
33951SOL    HW1 3860   8.082   0.113   1.841
33951SOL    HW2 3861   7.974   0.123   1.947
33952SOL     OW 3862   0.717   2.670   0.291
33952SOL    HW1 3863   0.703   2.583   0.252
33952SOL    HW2 3864   0.804   2.664   0.331
33953SOL     OW 3865   6.051   8.121   0.893
33953SOL    HW1 3866   6.041   8.210   0.860
33953SOL    HW2 3867   6.061   8.067   0.814
33954SOL     OW 3868   7.859   0.571   2.336
33954SOL    HW1 3869   7.764   0.580   2.330
33954SOL    HW2 3870   7.877   0.563   2.429
33955SOL     OW 3871   0.868   6.744   0.282
33955SOL    HW1 3872   0.862   6.825   0.231
33955SOL    HW2 3873   0.952   6.750   0.327
33956SOL     OW 3874   1.793   7.769   7.039
33956SOL    HW1 3875   1.837   7.722   6.968
33956SOL    HW2 3876   1.864   7.799   7.095
33957SOL     OW 3877   9.485   8.537   3.320
33957SOL    HW1 3878   9.568   8.515   3.362
33957SOL    HW2 3879   9.432   8.457   3.327
33958SOL     OW 3880   7.354   7.876   2.851
33958SOL    HW1 3881   7.405   7.952   2.824
33958SOL    HW2 3882   7.406   7.801   2.821
33959SOL     OW 3883   3.155  10.717   0.513
33959SOL    HW1 3884   3.228  10.673   0.468
33959SOL    HW2 3885   3.163  10.809   0.487
33960SOL     OW 3886   9.045   9.789  10.162
33960SOL    HW1 3887   8.986   9.746  10.224
33960SOL    HW2 3888   9.108   9.721  10.138
33961SOL     OW 3889   1.644   4.675   3.457
33961SOL    HW1 3890   1.632   4.583   3.483
33961SOL    HW2 3891   1.634   4.724   3.538
33962SOL     OW 3892   7.996   1.286   8.860
33962SOL    HW1 3893   8.092   1.287   8.856
33962SOL    HW2 3894   7.968   1.316   8.773
33963SOL     OW 3895   9.401  10.791   5.643
33963SOL    HW1 3896   9.495  10.797   5.625
33963SOL    HW2 3897   9.396  10.755   5.731
33964SOL     OW 3898   3.205   8.610   2.579
33964SOL    HW1 3899   3.148   8.559   2.636
33964SOL    HW2 3900   3.185   8.578   2.491
33965SOL     OW 3901   9.006  10.438   9.891
33965SOL    HW1 3902   8.914  10.458   9.877
33965SOL    HW2 3903   9.031  10.492   9.966
33966SOL     OW 3904   4.998   0.480   2.699
33966SOL    HW1 3905   4.907   0.509   2.699
33966SOL    HW2 3906   5.040   0.530   2.769
33967SOL     OW 3907   9.951   5.536   8.635
33967SOL    HW1 3908   9.946   5.451   8.591
33967SOL    HW2 3909   9.861   5.555   8.661
33968SOL     OW 3910   9.565   5.200   3.629
33968SOL    HW1 3911   9.488   5.234   3.583
33968SOL    HW2 3912   9.559   5.105   3.618
33969SOL     OW 3913   0.993   0.374   6.877
33969SOL    HW1 3914   0.923   0.436   6.858
33969SOL    HW2 3915   1.006   0.327   6.794
33970SOL     OW 3916   8.871   1.826   7.605
33970SOL    HW1 3917   8.889   1.919   7.591
33970SOL    HW2 3918   8.800   1.825   7.669
33971SOL     OW 3919   6.253   9.623   5.238
33971SOL    HW1 3920   6.159   9.603   5.236
33971SOL    HW2 3921   6.273   9.639   5.330
33972SOL     OW 3922   5.374   7.307   1.578
33972SOL    HW1 3923   5.375   7.222   1.533
33972SOL    HW2 3924   5.365   7.285   1.670
33973SOL     OW 3925   4.796  10.788  11.057
33973SOL    HW1 3926   4.875  10.827  11.095
33973SOL    HW2 3927   4.724  10.825  11.108
33974SOL     OW 3928   8.677   4.774   8.411
33974SOL    HW1 3929   8.733   4.842   8.373
33974SOL    HW2 3930   8.594   4.818   8.427
33975SOL     OW 3931   6.906   6.836   3.919
33975SOL    HW1 3932   6.936   6.911   3.868
33975SOL    HW2 3933   6.815   6.855   3.939
33976SOL     OW 3934   9.622   8.845  10.230
33976SOL    HW1 3935   9.617   8.839  10.325
33976SOL    HW2 3936   9.614   8.938  10.210
33977SOL     OW 3937   6.426   3.229   5.463
33977SOL    HW1 3938   6.406   3.309   5.511
33977SOL    HW2 3939   6.431   3.161   5.530
33978SOL     OW 3940   0.526   9.045   8.390
33978SOL    HW1 3941   0.577   9.112   8.345
33978SOL    HW2 3942   0.449   9.091   8.423
33979SOL     OW 3943   5.316   9.285   1.845
33979SOL    HW1 3944   5.329   9.222   1.916
33979SOL    HW2 3945   5.271   9.358   1.885
33980SOL     OW 3946   1.077   6.636   6.454
33980SOL    HW1 3947   0.990   6.596   6.448
33980SOL    HW2 3948   1.095   6.640   6.548
33981SOL     OW 3949   0.888   3.433   5.187
33981SOL    HW1 3950   0.976   3.412   5.219
33981SOL    HW2 3951   0.894   3.523   5.157
33982SOL     OW 3952   3.085   7.830   2.970
33982SOL    HW1 3953   3.161   7.774   2.989
33982SOL    HW2 3954   3.122   7.904   2.922
33983SOL     OW 3955   5.613   2.156   5.366
33983SOL    HW1 3956   5.574   2.098   5.431
33983SOL    HW2 3957   5.704   2.165   5.394
33984SOL     OW 3958   5.668   4.885  10.477
33984SOL    HW1 3959   5.754   4.918  10.502
33984SOL    HW2 3960   5.618   4.963  10.454
33985SOL     OW 3961   5.075  10.743   5.321
33985SOL    HW1 3962   5.026  10.814   5.363
33985SOL    HW2 3963   5.163  10.779   5.308
33986SOL     OW 3964   0.940  10.706   6.338
33986SOL    HW1 3965   0.932  10.747   6.424
33986SOL    HW2 3966   1.004  10.759   6.291
33987SOL     OW 3967   8.706   8.977  10.664
33987SOL    HW1 3968   8.622   9.023  10.659
33987SOL    HW2 3969   8.747   8.993  10.579
33988SOL     OW 3970   8.770   1.724   2.303
33988SOL    HW1 3971   8.856   1.765   2.312
33988SOL    HW2 3972   8.781   1.660   2.233
33989SOL     OW 3973   0.284   5.694   0.902
33989SOL    HW1 3974   0.232   5.758   0.950
33989SOL    HW2 3975   0.306   5.627   0.967
33990SOL     OW 3976   9.353   4.756   7.419
33990SOL    HW1 3977   9.355   4.752   7.323
33990SOL    HW2 3978   9.375   4.846   7.440
33991SOL     OW 3979   2.871   7.603   0.583
33991SOL    HW1 3980   2.848   7.688   0.546
33991SOL    HW2 3981   2.810   7.590   0.655
33992SOL     OW 3982  10.842   6.322   2.283
33992SOL    HW1 3983  10.912   6.373   2.323
33992SOL    HW2 3984  10.801   6.382   2.221
33993SOL     OW 3985   0.144   8.187  10.689
33993SOL    HW1 3986   0.174   8.190  10.598
33993SOL    HW2 3987   0.110   8.098  10.700
33994SOL     OW 3988   0.135   6.173   4.920
33994SOL    HW1 3989   0.185   6.165   5.001
33994SOL    HW2 3990   0.044   6.180   4.948
33995SOL     OW 3991   8.428   8.714   8.961
33995SOL    HW1 3992   8.371   8.638   8.951
33995SOL    HW2 3993   8.402   8.752   9.044
33996SOL     OW 3994   6.037  10.259   5.711
33996SOL    HW1 3995   6.068  10.211   5.788
33996SOL    HW2 3996   6.111  10.257   5.650
33997SOL     OW 3997   8.548  10.800   8.932
33997SOL    HW1 3998   8.604  10.770   8.860
33997SOL    HW2 3999   8.472  10.838   8.888
33998SOL     OW 4000   0.584   9.362   1.033
33998SOL    HW1 4001   0.637   9.441   1.020
33998SOL    HW2 4002   0.502   9.393   1.069
33999SOL     OW 4003   5.725   9.286   0.083
33999SOL    HW1 4004   5.739   9.378   0.102
33999SOL    HW2 4005   5.667   9.285   0.007
34000SOL     OW 4006   8.963  10.115   6.143
34000SOL    HW1 4007   8.888  10.151   6.189
34000SOL    HW2 4008   9.034  10.117   6.207
34001SOL     OW 4009   2.222   6.733   5.451
34001SOL    HW1 4010   2.127   6.726   5.442
34001SOL    HW2 4011   2.249   6.647   5.485
34002SOL     OW 4012   9.238   8.995   3.747
34002SOL    HW1 4013   9.172   9.047   3.792
34002SOL    HW2 4014   9.317   9.004   3.800
34003SOL     OW 4015  10.845   9.466  10.543
34003SOL    HW1 4016  10.879   9.555  10.546
34003SOL    HW2 4017  10.759   9.471  10.585
34004SOL     OW 4018   1.918   3.438   4.105
34004SOL    HW1 4019   1.845   3.420   4.164
34004SOL    HW2 4020   1.877   3.459   4.021
34005SOL     OW 4021   3.725   9.580   6.761
34005SOL    HW1 4022   3.726   9.484   6.763
34005SOL    HW2 4023   3.706   9.605   6.851
34006SOL     OW 4024   9.577   6.608   3.332
34006SOL    HW1 4025   9.592   6.528   3.281
34006SOL    HW2 4026   9.653   6.614   3.390
34007SOL     OW 4027   4.936  10.610   8.317
34007SOL    HW1 4028   5.002  10.623   8.249
34007SOL    HW2 4029   4.977  10.551   8.380
34008SOL     OW 4030   3.904   0.217   0.029
34008SOL    HW1 4031   3.877   0.147  -0.030
34008SOL    HW2 4032   3.892   0.180   0.117
34009SOL     OW 4033   8.545   5.438   3.698
34009SOL    HW1 4034   8.526   5.496   3.771
34009SOL    HW2 4035   8.603   5.371   3.734
34010SOL     OW 4036   6.577   4.213   1.263
34010SOL    HW1 4037   6.492   4.171   1.250
34010SOL    HW2 4038   6.557   4.292   1.313
34011SOL     OW 4039   8.310   8.761   2.726
34011SOL    HW1 4040   8.404   8.777   2.731
34011SOL    HW2 4041   8.293   8.696   2.794
34012SOL     OW 4042   1.929  10.483   1.337
34012SOL    HW1 4043   1.882  10.515   1.260
34012SOL    HW2 4044   1.923  10.388   1.330
34013SOL     OW 4045   9.016   9.184   9.881
34013SOL    HW1 4046   8.949   9.118   9.899
34013SOL    HW2 4047   8.979   9.266   9.912
34014SOL     OW 4048   5.541  10.801   3.141
34014SOL    HW1 4049   5.494  10.801   3.224
34014SOL    HW2 4050   5.546  10.709   3.116
34015SOL     OW 4051  10.440   6.419   9.687
34015SOL    HW1 4052  10.508   6.427   9.620
34015SOL    HW2 4053  10.458   6.490   9.748
34016SOL     OW 4054   9.979   1.556   7.413
34016SOL    HW1 4055   9.964   1.636   7.463
34016SOL    HW2 4056   9.937   1.487   7.464
34017SOL     OW 4057   6.527   8.231   9.736
34017SOL    HW1 4058   6.557   8.320   9.752
34017SOL    HW2 4059   6.592   8.176   9.780
34018SOL     OW 4060   1.896   2.934   9.683
34018SOL    HW1 4061   1.883   2.981   9.600
34018SOL    HW2 4062   1.955   2.862   9.660
34019SOL     OW 4063   1.957   5.880   1.634
34019SOL    HW1 4064   1.955   5.968   1.596
34019SOL    HW2 4065   2.041   5.844   1.606
34020SOL     OW 4066   1.057   5.510   0.858
34020SOL    HW1 4067   1.034   5.417   0.858
34020SOL    HW2 4068   1.004   5.548   0.928
34021SOL     OW 4069   7.055   8.886  10.653
34021SOL    HW1 4070   6.965   8.915  10.665
34021SOL    HW2 4071   7.108   8.963  10.670
34022SOL     OW 4072  10.518   7.264   3.927
34022SOL    HW1 4073  10.481   7.182   3.959
34022SOL    HW2 4074  10.449   7.302   3.873
34023SOL     OW 4075   9.110   4.107   0.202
34023SOL    HW1 4076   9.196   4.114   0.161
34023SOL    HW2 4077   9.075   4.023   0.170
34024SOL     OW 4078  11.000   9.084   0.225
34024SOL    HW1 4079  11.049   9.004   0.204
34024SOL    HW2 4080  11.023   9.145   0.155
34025SOL     OW 4081  10.877   3.561  10.677
34025SOL    HW1 4082  10.926   3.508  10.614
34025SOL    HW2 4083  10.906   3.650  10.661
34026SOL     OW 4084   7.418   5.670   4.907
34026SOL    HW1 4085   7.492   5.696   4.962
34026SOL    HW2 4086   7.411   5.575   4.920
34027SOL     OW 4087   5.021  11.029   8.216
34027SOL    HW1 4088   5.061  10.949   8.182
34027SOL    HW2 4089   5.081  11.058   8.284
34028SOL     OW 4090   1.187   0.387   2.237
34028SOL    HW1 4091   1.147   0.449   2.297
34028SOL    HW2 4092   1.217   0.440   2.163
34029SOL     OW 4093   4.905   6.147   0.174
34029SOL    HW1 4094   4.863   6.177   0.094
34029SOL    HW2 4095   4.996   6.131   0.149
34030SOL     OW 4096   7.010   7.725   0.481
34030SOL    HW1 4097   7.032   7.794   0.543
34030SOL    HW2 4098   7.094   7.686   0.457
34031SOL     OW 4099   7.956   6.459   9.679
34031SOL    HW1 4100   7.861   6.450   9.673
34031SOL    HW2 4101   7.976   6.445   9.771
34032SOL     OW 4102   0.749   6.597   3.225
34032SOL    HW1 4103   0.686   6.646   3.277
34032SOL    HW2 4104   0.697   6.555   3.157
34033SOL     OW 4105   0.575   8.840   4.115
34033SOL    HW1 4106   0.593   8.929   4.145
34033SOL    HW2 4107   0.491   8.846   4.070
34034SOL     OW 4108   3.537   3.502   3.635
34034SOL    HW1 4109   3.536   3.459   3.549
34034SOL    HW2 4110   3.587   3.582   3.621
34035SOL     OW 4111   5.462   0.959   1.717
34035SOL    HW1 4112   5.465   1.017   1.793
34035SOL    HW2 4113   5.381   0.910   1.727
34036SOL     OW 4114  11.023   9.997   3.074
34036SOL    HW1 4115  11.052  10.031   3.158
34036SOL    HW2 4116  11.102   9.997   3.019
34037SOL     OW 4117   6.862   6.526   2.664
34037SOL    HW1 4118   6.845   6.473   2.586
34037SOL    HW2 4119   6.952   6.504   2.689
34038SOL     OW 4120   1.059   0.931   2.177
34038SOL    HW1 4121   1.023   1.007   2.221
34038SOL    HW2 4122   1.011   0.857   2.214
34039SOL     OW 4123   8.373   7.273   2.506
34039SOL    HW1 4124   8.412   7.191   2.476
34039SOL    HW2 4125   8.332   7.309   2.427
34040SOL     OW 4126   6.227   5.933   4.955
34040SOL    HW1 4127   6.224   6.015   5.004
34040SOL    HW2 4128   6.299   5.884   4.994
34041SOL     OW 4129   8.867   5.438   4.638
34041SOL    HW1 4130   8.796   5.381   4.669
34041SOL    HW2 4131   8.869   5.511   4.699
34042SOL     OW 4132  10.722   7.830  10.079
34042SOL    HW1 4133  10.741   7.800   9.990
34042SOL    HW2 4134  10.630   7.855  10.076
34043SOL     OW 4135   5.785   0.131   2.149
34043SOL    HW1 4136   5.801   0.057   2.207
34043SOL    HW2 4137   5.742   0.196   2.204
34044SOL     OW 4138  10.991   7.608   1.188
34044SOL    HW1 4139  10.986   7.698   1.158
34044SOL    HW2 4140  10.900   7.578   1.188
34045SOL     OW 4141   8.785   3.826   1.463
34045SOL    HW1 4142   8.766   3.919   1.456
34045SOL    HW2 4143   8.757   3.802   1.551
34046SOL     OW 4144   6.714   8.082   8.334
34046SOL    HW1 4145   6.802   8.048   8.354
34046SOL    HW2 4146   6.727   8.176   8.320
34047SOL     OW 4147   1.659   6.934   9.935
34047SOL    HW1 4148   1.583   6.976   9.896
34047SOL    HW2 4149   1.733   6.988   9.907
34048SOL     OW 4150   5.061   0.164   0.929
34048SOL    HW1 4151   5.100   0.155   1.016
34048SOL    HW2 4152   5.063   0.258   0.911
34049SOL     OW 4153   8.463   5.549   2.632
34049SOL    HW1 4154   8.400   5.620   2.620
34049SOL    HW2 4155   8.486   5.552   2.724
34050SOL     OW 4156   7.298  11.005   3.817
34050SOL    HW1 4157   7.207  10.993   3.789
34050SOL    HW2 4158   7.344  10.928   3.784
34051SOL     OW 4159   7.763   4.753  10.663
34051SOL    HW1 4160   7.780   4.790  10.749
34051SOL    HW2 4161   7.669   4.734  10.662
34052SOL     OW 4162   2.392   2.707   8.844
34052SOL    HW1 4163   2.439   2.630   8.877
34052SOL    HW2 4164   2.343   2.674   8.768
34053SOL     OW 4165   1.167   7.358   1.018
34053SOL    HW1 4166   1.208   7.302   0.951
34053SOL    HW2 4167   1.106   7.413   0.969
34054SOL     OW 4168   7.565  11.046   9.260
34054SOL    HW1 4169   7.610  11.130   9.267
34054SOL    HW2 4170   7.487  11.055   9.315
34055SOL     OW 4171   6.001   2.300   1.081
34055SOL    HW1 4172   5.957   2.378   1.115
34055SOL    HW2 4173   5.954   2.226   1.121
34056SOL     OW 4174   3.790  10.038   7.813
34056SOL    HW1 4175   3.781   9.961   7.869
34056SOL    HW2 4176   3.806  10.110   7.873
34057SOL     OW 4177   7.172   2.301   4.891
34057SOL    HW1 4178   7.172   2.379   4.836
34057SOL    HW2 4179   7.109   2.319   4.960
34058SOL     OW 4180  10.580   4.892   5.902
34058SOL    HW1 4181  10.542   4.804   5.895
34058SOL    HW2 4182  10.522   4.948   5.850
34059SOL     OW 4183   3.839   1.167   7.690
34059SOL    HW1 4184   3.794   1.241   7.728
34059SOL    HW2 4185   3.908   1.145   7.753
34060SOL     OW 4186   7.405   6.340   0.024
34060SOL    HW1 4187   7.409   6.435   0.026
34060SOL    HW2 4188   7.311   6.320   0.024
34061SOL     OW 4189  10.771   4.317  10.222
34061SOL    HW1 4190  10.836   4.260  10.264
34061SOL    HW2 4191  10.804   4.329  10.133
34062SOL     OW 4192  10.515   6.559   8.506
34062SOL    HW1 4193  10.482   6.469   8.499
34062SOL    HW2 4194  10.592   6.552   8.562
34063SOL     OW 4195   0.706  10.611   7.392
34063SOL    HW1 4196   0.631  10.629   7.335
34063SOL    HW2 4197   0.726  10.519   7.377
34064SOL     OW 4198  10.133   2.926   1.138
34064SOL    HW1 4199  10.211   2.981   1.145
34064SOL    HW2 4200  10.103   2.938   1.047
34065SOL     OW 4201   8.271   4.666   1.973
34065SOL    HW1 4202   8.357   4.641   2.007
34065SOL    HW2 4203   8.243   4.591   1.920
34066SOL     OW 4204   5.512   3.133   8.730
34066SOL    HW1 4205   5.554   3.212   8.762
34066SOL    HW2 4206   5.475   3.158   8.645
34067SOL     OW 4207  10.398   2.983   9.994
34067SOL    HW1 4208  10.348   2.915   9.947
34067SOL    HW2 4209  10.476   2.996   9.940
34068SOL     OW 4210   6.403   3.011   4.659
34068SOL    HW1 4211   6.475   3.073   4.648
34068SOL    HW2 4212   6.412   2.980   4.749
34069SOL     OW 4213   6.746   3.335   8.752
34069SOL    HW1 4214   6.722   3.248   8.783
34069SOL    HW2 4215   6.782   3.319   8.664
34070SOL     OW 4216   4.028   1.979   8.428
34070SOL    HW1 4217   4.092   1.985   8.499
34070SOL    HW2 4218   4.081   1.969   8.349
34071SOL     OW 4219   3.307   0.038   0.448
34071SOL    HW1 4220   3.356  -0.021   0.391
34071SOL    HW2 4221   3.263  -0.020   0.510
34072SOL     OW 4222   7.401   7.024  10.585
34072SOL    HW1 4223   7.310   7.048  10.599
34072SOL    HW2 4224   7.397   6.946  10.530
34073SOL     OW 4225   8.248   7.501   3.082
34073SOL    HW1 4226   8.259   7.406   3.083
34073SOL    HW2 4227   8.208   7.521   3.166
34074SOL     OW 4228   7.705   7.581   0.622
34074SOL    HW1 4229   7.629   7.591   0.679
34074SOL    HW2 4230   7.736   7.670   0.607
34075SOL     OW 4231   0.456   9.975  10.293
34075SOL    HW1 4232   0.464   9.880  10.282
34075SOL    HW2 4233   0.460   9.988  10.387
34076SOL     OW 4234   9.581   2.868   1.913
34076SOL    HW1 4235   9.538   2.924   1.977
34076SOL    HW2 4236   9.584   2.920   1.833
34077SOL     OW 4237   5.343   0.750   3.535
34077SOL    HW1 4238   5.272   0.688   3.516
34077SOL    HW2 4239   5.385   0.765   3.450
34078SOL     OW 4240   3.837   7.946   8.192
34078SOL    HW1 4241   3.755   7.921   8.233
34078SOL    HW2 4242   3.813   7.966   8.101
34079SOL     OW 4243   3.590  10.935   6.957
34079SOL    HW1 4244   3.685  10.939   6.950
34079SOL    HW2 4245   3.574  10.889   7.039
34080SOL     OW 4246   7.519   7.359   0.417
34080SOL    HW1 4247   7.517   7.265   0.434
34080SOL    HW2 4248   7.430   7.388   0.435
34081SOL     OW 4249   8.670   4.453   7.385
34081SOL    HW1 4250   8.624   4.429   7.304
34081SOL    HW2 4251   8.732   4.381   7.399
34082SOL     OW 4252   0.170   7.132   8.691
34082SOL    HW1 4253   0.089   7.136   8.742
34082SOL    HW2 4254   0.216   7.212   8.714
34083SOL     OW 4255   6.534   2.668   9.303
34083SOL    HW1 4256   6.537   2.584   9.256
34083SOL    HW2 4257   6.604   2.661   9.368
34084SOL     OW 4258   8.436   9.648   9.625
34084SOL    HW1 4259   8.397   9.675   9.542
34084SOL    HW2 4260   8.492   9.721   9.650
34085SOL     OW 4261  10.993   7.201   3.332
34085SOL    HW1 4262  10.920   7.260   3.314
34085SOL    HW2 4263  11.061   7.227   3.270
34086SOL     OW 4264   6.408  10.392  10.874
34086SOL    HW1 4265   6.371  10.415  10.959
34086SOL    HW2 4266   6.443  10.474  10.840
34087SOL     OW 4267   3.312   1.263   5.618
34087SOL    HW1 4268   3.268   1.251   5.533
34087SOL    HW2 4269   3.375   1.191   5.622
34088SOL     OW 4270   9.684   5.728   5.461
34088SOL    HW1 4271   9.650   5.663   5.522
34088SOL    HW2 4272   9.705   5.678   5.382
34089SOL     OW 4273   3.263   3.312   5.110
34089SOL    HW1 4274   3.218   3.320   5.194
34089SOL    HW2 4275   3.304   3.397   5.096
34090SOL     OW 4276   0.523   9.725   7.333
34090SOL    HW1 4277   0.540   9.661   7.402
34090SOL    HW2 4278   0.590   9.792   7.345
34091SOL     OW 4279   1.026   9.676   5.471
34091SOL    HW1 4280   0.950   9.624   5.445
34091SOL    HW2 4281   1.062   9.709   5.388
34092SOL     OW 4282   8.276   6.473   8.974
34092SOL    HW1 4283   8.208   6.528   9.012
34092SOL    HW2 4284   8.229   6.408   8.922
34093SOL     OW 4285   7.393   8.055   6.520
34093SOL    HW1 4286   7.390   8.101   6.604
34093SOL    HW2 4287   7.463   8.098   6.471
34094SOL     OW 4288   1.623   0.225   3.472
34094SOL    HW1 4289   1.651   0.133   3.474
34094SOL    HW2 4290   1.605   0.242   3.379
34095SOL     OW 4291  10.076   1.654   3.827
34095SOL    HW1 4292  10.105   1.661   3.736
34095SOL    HW2 4293   9.992   1.609   3.822
34096SOL     OW 4294   0.912   3.147   0.690
34096SOL    HW1 4295   0.973   3.130   0.618
34096SOL    HW2 4296   0.963   3.198   0.753
34097SOL     OW 4297   8.264   7.502   5.993
34097SOL    HW1 4298   8.181   7.545   5.974
34097SOL    HW2 4299   8.250   7.457   6.076
34098SOL     OW 4300  10.499   2.678   2.808
34098SOL    HW1 4301  10.563   2.731   2.760
34098SOL    HW2 4302  10.448   2.741   2.858
34099SOL     OW 4303  10.771   6.394   7.273
34099SOL    HW1 4304  10.719   6.434   7.342
34099SOL    HW2 4305  10.857   6.380   7.312
34100SOL     OW 4306  10.447   8.087   9.920
34100SOL    HW1 4307  10.477   8.026   9.852
34100SOL    HW2 4308  10.457   8.038  10.002
34101SOL     OW 4309   4.496  11.093   8.058
34101SOL    HW1 4310   4.459  11.097   8.146
34101SOL    HW2 4311   4.577  11.043   8.068
34102SOL     OW 4312   6.303   2.702   2.679
34102SOL    HW1 4313   6.286   2.647   2.756
34102SOL    HW2 4314   6.332   2.640   2.612
34103SOL     OW 4315   7.928   6.307   0.438
34103SOL    HW1 4316   8.003   6.301   0.497
34103SOL    HW2 4317   7.953   6.374   0.374
34104SOL     OW 4318   8.793   5.454  10.241
34104SOL    HW1 4319   8.824   5.543  10.225
34104SOL    HW2 4320   8.821   5.433  10.330
34105SOL     OW 4321  10.720   9.183  10.758
34105SOL    HW1 4322  10.657   9.254  10.748
34105SOL    HW2 4323  10.805   9.224  10.745
34106SOL     OW 4324   7.470   6.665   2.391
34106SOL    HW1 4325   7.410   6.681   2.318
34106SOL    HW2 4326   7.521   6.588   2.364
34107SOL     OW 4327   7.657   8.106   1.741
34107SOL    HW1 4328   7.673   8.184   1.687
34107SOL    HW2 4329   7.571   8.075   1.714
34108SOL     OW 4330   8.307   6.292   5.897
34108SOL    HW1 4331   8.343   6.203   5.900
34108SOL    HW2 4332   8.294   6.309   5.803
34109SOL     OW 4333   5.601  10.558   3.001
34109SOL    HW1 4334   5.640  10.613   2.933
34109SOL    HW2 4335   5.621  10.468   2.974
34110SOL     OW 4336   5.543   0.515   6.023
34110SOL    HW1 4337   5.496   0.445   5.977
34110SOL    HW2 4338   5.603   0.469   6.082
34111SOL     OW 4339   3.789   7.907   0.131
34111SOL    HW1 4340   3.859   7.903   0.196
34111SOL    HW2 4341   3.736   7.829   0.148
34112SOL     OW 4342   4.909   2.613   2.229
34112SOL    HW1 4343   4.896   2.525   2.265
34112SOL    HW2 4344   4.927   2.668   2.305
34113SOL     OW 4345   2.818   6.511   8.943
34113SOL    HW1 4346   2.877   6.567   8.993
34113SOL    HW2 4347   2.735   6.515   8.990
34114SOL     OW 4348   6.079   8.644   9.439
34114SOL    HW1 4349   6.137   8.578   9.477
34114SOL    HW2 4350   6.052   8.698   9.513
34115SOL     OW 4351   7.644   3.203   6.343
34115SOL    HW1 4352   7.669   3.146   6.416
34115SOL    HW2 4353   7.713   3.190   6.278
34116SOL     OW 4354   4.816   0.510   5.496
34116SOL    HW1 4355   4.768   0.433   5.464
34116SOL    HW2 4356   4.901   0.504   5.453
34117SOL     OW 4357   0.431   8.332   3.619
34117SOL    HW1 4358   0.486   8.307   3.693
34117SOL    HW2 4359   0.402   8.248   3.582
34118SOL     OW 4360   1.531   3.971   3.430
34118SOL    HW1 4361   1.568   3.927   3.506
34118SOL    HW2 4362   1.439   3.985   3.452
34119SOL     OW 4363  10.136   6.197   0.913
34119SOL    HW1 4364  10.068   6.131   0.929
34119SOL    HW2 4365  10.188   6.198   0.993
34120SOL     OW 4366   7.296   2.447   6.893
34120SOL    HW1 4367   7.337   2.410   6.815
34120SOL    HW2 4368   7.239   2.516   6.859
34121SOL     OW 4369   2.093   5.366   9.258
34121SOL    HW1 4370   2.182   5.333   9.268
34121SOL    HW2 4371   2.063   5.383   9.347
34122SOL     OW 4372   6.441   6.152   2.890
34122SOL    HW1 4373   6.455   6.130   2.982
34122SOL    HW2 4374   6.512   6.213   2.868
34123SOL     OW 4375   6.415   4.060  10.952
34123SOL    HW1 4376   6.460   3.980  10.925
34123SOL    HW2 4377   6.461   4.130  10.906
34124SOL     OW 4378  10.942   7.778   4.004
34124SOL    HW1 4379  11.011   7.791   3.939
34124SOL    HW2 4380  10.912   7.688   3.989
34125SOL     OW 4381   1.061   8.190   6.758
34125SOL    HW1 4382   1.004   8.259   6.724
34125SOL    HW2 4383   1.052   8.195   6.853
34126SOL     OW 4384   8.409   2.102   8.050
34126SOL    HW1 4385   8.427   2.074   7.960
34126SOL    HW2 4386   8.315   2.087   8.061
34127SOL     OW 4387   4.752   6.224  10.383
34127SOL    HW1 4388   4.681   6.285  10.362
34127SOL    HW2 4389   4.829   6.260  10.339
34128SOL     OW 4390   7.460   8.806   7.643
34128SOL    HW1 4391   7.431   8.718   7.669
34128SOL    HW2 4392   7.473   8.799   7.548
34129SOL     OW 4393  10.277   3.636   0.018
34129SOL    HW1 4394  10.337   3.605   0.086
34129SOL    HW2 4395  10.288   3.573  -0.053
34130SOL     OW 4396   6.657   9.385   2.622
34130SOL    HW1 4397   6.747   9.356   2.636
34130SOL    HW2 4398   6.621   9.320   2.562
34131SOL     OW 4399   5.892   7.151  10.002
34131SOL    HW1 4400   5.904   7.218  10.068
34131SOL    HW2 4401   5.833   7.087  10.042
34132SOL     OW 4402   8.160   9.671   5.700
34132SOL    HW1 4403   8.205   9.710   5.774
34132SOL    HW2 4404   8.147   9.579   5.725
34133SOL     OW 4405   0.343   5.763   5.733
34133SOL    HW1 4406   0.261   5.744   5.780
34133SOL    HW2 4407   0.376   5.842   5.774
34134SOL     OW 4408   2.954   5.400   2.005
34134SOL    HW1 4409   3.015   5.326   2.004
34134SOL    HW2 4410   2.969   5.442   2.089
34135SOL     OW 4411   5.358   6.812  10.608
34135SOL    HW1 4412   5.333   6.765  10.687
34135SOL    HW2 4413   5.448   6.784  10.591
34136SOL     OW 4414  10.051   4.714   3.290
34136SOL    HW1 4415   9.961   4.744   3.303
34136SOL    HW2 4416  10.056   4.632   3.339
34137SOL     OW 4417   0.068   9.507  10.305
34137SOL    HW1 4418  -0.013   9.535  10.261
34137SOL    HW2 4419   0.045   9.502  10.397
34138SOL     OW 4420   7.262   8.682   6.871
34138SOL    HW1 4421   7.322   8.608   6.881
34138SOL    HW2 4422   7.276   8.712   6.781
34139SOL     OW 4423   8.639   3.530   5.425
34139SOL    HW1 4424   8.701   3.483   5.369
34139SOL    HW2 4425   8.557   3.529   5.376
34140SOL     OW 4426   6.492   5.819   9.491
34140SOL    HW1 4427   6.398   5.809   9.479
34140SOL    HW2 4428   6.514   5.899   9.444
34141SOL     OW 4429   9.333   2.270   3.000
34141SOL    HW1 4430   9.344   2.218   2.920
34141SOL    HW2 4431   9.276   2.217   3.055
34142SOL     OW 4432   9.184   4.320   2.421
34142SOL    HW1 4433   9.168   4.414   2.430
34142SOL    HW2 4434   9.206   4.290   2.509
34143SOL     OW 4435   3.980   2.441   5.712
34143SOL    HW1 4436   3.979   2.528   5.673
34143SOL    HW2 4437   3.935   2.451   5.796
34144SOL     OW 4438  10.934   0.649   8.761
34144SOL    HW1 4439  10.862   0.593   8.791
34144SOL    HW2 4440  11.013   0.596   8.776
34145SOL     OW 4441   6.157   6.945   0.722
34145SOL    HW1 4442   6.112   6.860   0.719
34145SOL    HW2 4443   6.209   6.946   0.641
34146SOL     OW 4444   6.939   2.017   2.521
34146SOL    HW1 4445   7.012   2.067   2.484
34146SOL    HW2 4446   6.970   1.991   2.608
34147SOL     OW 4447   0.656   7.336   2.052
34147SOL    HW1 4448   0.721   7.292   1.997
34147SOL    HW2 4449   0.696   7.340   2.138
34148SOL     OW 4450  10.173   6.764   3.902
34148SOL    HW1 4451  10.107   6.774   3.970
34148SOL    HW2 4452  10.192   6.670   3.901
34149SOL     OW 4453   4.581   5.106   1.165
34149SOL    HW1 4454   4.507   5.088   1.222
34149SOL    HW2 4455   4.625   5.181   1.204
34150SOL     OW 4456   3.155   8.728   9.467
34150SOL    HW1 4457   3.082   8.783   9.438
34150SOL    HW2 4458   3.114   8.661   9.522
34151SOL     OW 4459   8.203   6.899   0.575
34151SOL    HW1 4460   8.260   6.970   0.603
34151SOL    HW2 4461   8.186   6.849   0.655
34152SOL     OW 4462   2.414   9.348   0.932
34152SOL    HW1 4463   2.461   9.383   1.007
34152SOL    HW2 4464   2.483   9.326   0.869
34153SOL     OW 4465   1.380   8.273   7.525
34153SOL    HW1 4466   1.289   8.294   7.506
34153SOL    HW2 4467   1.418   8.355   7.557
34154SOL     OW 4468  10.038   6.888   4.409
34154SOL    HW1 4469  10.005   6.918   4.493
34154SOL    HW2 4470  10.115   6.942   4.392
34155SOL     OW 4471   7.050   4.068   6.432
34155SOL    HW1 4472   7.073   4.129   6.362
34155SOL    HW2 4473   7.006   4.121   6.498
34156SOL     OW 4474   0.099   1.157   8.509
34156SOL    HW1 4475   0.169   1.145   8.445
34156SOL    HW2 4476   0.096   1.074   8.557
34157SOL     OW 4477   6.697   9.656   9.179
34157SOL    HW1 4478   6.749   9.596   9.232
34157SOL    HW2 4479   6.749   9.736   9.176
34158SOL     OW 4480  10.143   9.481   2.149
34158SOL    HW1 4481  10.164   9.434   2.068
34158SOL    HW2 4482  10.167   9.572   2.131
34159SOL     OW 4483   0.552   1.325   2.365
34159SOL    HW1 4484   0.487   1.319   2.435
34159SOL    HW2 4485   0.503   1.358   2.289
34160SOL     OW 4486   7.793   5.064  10.807
34160SOL    HW1 4487   7.716   5.013  10.782
34160SOL    HW2 4488   7.775   5.092  10.896
34161SOL     OW 4489   0.505   3.214   1.700
34161SOL    HW1 4490   0.591   3.256   1.692
34161SOL    HW2 4491   0.515   3.152   1.773
34162SOL     OW 4492  10.171   2.938   1.553
34162SOL    HW1 4493  10.164   2.972   1.642
34162SOL    HW2 4494  10.165   2.843   1.563
34163SOL     OW 4495   6.786   8.522   5.141
34163SOL    HW1 4496   6.715   8.498   5.201
34163SOL    HW2 4497   6.865   8.517   5.194
34164SOL     OW 4498   9.872   2.214   6.802
34164SOL    HW1 4499   9.893   2.120   6.803
34164SOL    HW2 4500   9.926   2.251   6.871
34165SOL     OW 4501   2.866   5.541   4.458
34165SOL    HW1 4502   2.908   5.567   4.376
34165SOL    HW2 4503   2.910   5.593   4.525
34166SOL     OW 4504  10.274   5.962  10.766
34166SOL    HW1 4505  10.296   5.991  10.677
34166SOL    HW2 4506  10.331   6.013  10.823
34167SOL     OW 4507   6.597   5.434   3.092
34167SOL    HW1 4508   6.540   5.490   3.144
34167SOL    HW2 4509   6.623   5.364   3.152
34168SOL     OW 4510   0.518   1.625   8.526
34168SOL    HW1 4511   0.605   1.665   8.521
34168SOL    HW2 4512   0.511   1.593   8.616
34169SOL     OW 4513   8.868   4.872   4.387
34169SOL    HW1 4514   8.945   4.822   4.413
34169SOL    HW2 4515   8.832   4.906   4.469
34170SOL     OW 4516   0.478   0.241   5.242
34170SOL    HW1 4517   0.437   0.248   5.156
34170SOL    HW2 4518   0.494   0.147   5.253
34171SOL     OW 4519   1.016   3.359   0.855
34171SOL    HW1 4520   1.083   3.420   0.825
34171SOL    HW2 4521   0.953   3.413   0.903
34172SOL     OW 4522  10.864   3.531   7.091
34172SOL    HW1 4523  10.874   3.613   7.138
34172SOL    HW2 4524  10.792   3.486   7.135
34173SOL     OW 4525   9.517   4.735   0.967
34173SOL    HW1 4526   9.454   4.769   0.903
34173SOL    HW2 4527   9.501   4.786   1.046
34174SOL     OW 4528   5.697   0.484   9.432
34174SOL    HW1 4529   5.646   0.405   9.452
34174SOL    HW2 4530   5.646   0.530   9.365
34175SOL     OW 4531   1.774  10.428  11.071
34175SOL    HW1 4532   1.709  10.473  11.016
34175SOL    HW2 4533   1.841  10.398  11.009
34176SOL     OW 4534   6.936   9.853   0.970
34176SOL    HW1 4535   6.950   9.760   0.950
34176SOL    HW2 4536   6.864   9.879   0.912
34177SOL     OW 4537   0.461   9.658   5.300
34177SOL    HW1 4538   0.485   9.689   5.387
34177SOL    HW2 4539   0.536   9.681   5.245
34178SOL     OW 4540   7.578   8.074   5.838
34178SOL    HW1 4541   7.484   8.077   5.823
34178SOL    HW2 4542   7.613   8.147   5.787
34179SOL     OW 4543   6.470   8.257   6.177
34179SOL    HW1 4544   6.464   8.232   6.085
34179SOL    HW2 4545   6.455   8.351   6.177
34180SOL     OW 4546   2.835   9.388   0.704
34180SOL    HW1 4547   2.919   9.424   0.675
34180SOL    HW2 4548   2.781   9.386   0.625
34181SOL     OW 4549   6.661   3.003  10.041
34181SOL    HW1 4550   6.652   2.960  10.126
34181SOL    HW2 4551   6.756   3.008  10.026
34182SOL     OW 4552  10.147  10.577   3.745
34182SOL    HW1 4553  10.134  10.483   3.760
34182SOL    HW2 4554  10.184  10.610   3.827
34183SOL     OW 4555   1.481   6.695   4.570
34183SOL    HW1 4556   1.511   6.728   4.654
34183SOL    HW2 4557   1.533   6.616   4.555
34184SOL     OW 4558   9.650   5.857   8.528
34184SOL    HW1 4559   9.607   5.771   8.529
34184SOL    HW2 4560   9.663   5.878   8.620
34185SOL     OW 4561   3.686   6.236   0.865
34185SOL    HW1 4562   3.698   6.300   0.795
34185SOL    HW2 4563   3.705   6.284   0.945
34186SOL     OW 4564   1.133   4.131   6.199
34186SOL    HW1 4565   1.199   4.110   6.133
34186SOL    HW2 4566   1.074   4.192   6.155
34187SOL     OW 4567   0.600   0.970   5.134
34187SOL    HW1 4568   0.533   1.038   5.127
34187SOL    HW2 4569   0.594   0.922   5.051
34188SOL     OW 4570   7.568   8.186   6.358
34188SOL    HW1 4571   7.645   8.242   6.360
34188SOL    HW2 4572   7.526   8.205   6.274
34189SOL     OW 4573  10.880   8.650   2.916
34189SOL    HW1 4574  10.824   8.694   2.852
34189SOL    HW2 4575  10.823   8.631   2.990
34190SOL     OW 4576   1.822   7.236   3.157
34190SOL    HW1 4577   1.873   7.164   3.195
34190SOL    HW2 4578   1.733   7.201   3.151
34191SOL     OW 4579   1.069   4.725   8.710
34191SOL    HW1 4580   1.114   4.640   8.706
34191SOL    HW2 4581   0.994   4.714   8.652
34192SOL     OW 4582  10.471   0.027   1.940
34192SOL    HW1 4583  10.542   0.062   1.887
34192SOL    HW2 4584  10.512  -0.043   1.991
34193SOL     OW 4585   0.641   9.143   1.653
34193SOL    HW1 4586   0.622   9.121   1.744
34193SOL    HW2 4587   0.680   9.230   1.656
34194SOL     OW 4588   7.404   2.834   2.140
34194SOL    HW1 4589   7.497   2.857   2.136
34194SOL    HW2 4590   7.359   2.917   2.150
34195SOL     OW 4591   7.884   6.855   0.678
34195SOL    HW1 4592   7.888   6.920   0.608
34195SOL    HW2 4593   7.843   6.778   0.637
34196SOL     OW 4594   8.303   5.918   8.292
34196SOL    HW1 4595   8.218   5.938   8.254
34196SOL    HW2 4596   8.285   5.903   8.385
34197SOL     OW 4597   0.598   4.399   9.565
34197SOL    HW1 4598   0.677   4.409   9.617
34197SOL    HW2 4599   0.626   4.348   9.489
34198SOL     OW 4600   0.991   7.322  10.107
34198SOL    HW1 4601   0.951   7.285  10.028
34198SOL    HW2 4602   0.960   7.412  10.109
34199SOL     OW 4603   0.720   4.444   2.952
34199SOL    HW1 4604   0.768   4.374   2.907
34199SOL    HW2 4605   0.629   4.429   2.929
34200SOL     OW 4606   2.233   7.639   2.051
34200SOL    HW1 4607   2.235   7.611   1.959
34200SOL    HW2 4608   2.298   7.583   2.094
34201SOL     OW 4609   7.712   0.706   8.982
34201SOL    HW1 4610   7.774   0.762   9.028
34201SOL    HW2 4611   7.630   0.715   9.030
34202SOL     OW 4612   6.035   7.639   8.350
34202SOL    HW1 4613   6.060   7.729   8.330
34202SOL    HW2 4614   6.100   7.586   8.303
34203SOL     OW 4615   0.406   1.998   0.601
34203SOL    HW1 4616   0.399   1.920   0.656
34203SOL    HW2 4617   0.316   2.019   0.578
34204SOL     OW 4618  10.837  11.062   3.315
34204SOL    HW1 4619  10.822  11.116   3.237
34204SOL    HW2 4620  10.843  11.125   3.387
34205SOL     OW 4621   1.193   8.548   2.522
34205SOL    HW1 4622   1.100   8.565   2.511
34205SOL    HW2 4623   1.207   8.552   2.616
34206SOL     OW 4624   8.617   6.080   6.050
34206SOL    HW1 4625   8.616   5.984   6.055
34206SOL    HW2 4626   8.618   6.098   5.956
34207SOL     OW 4627   3.010   0.046   4.204
34207SOL    HW1 4628   3.043  -0.044   4.210
34207SOL    HW2 4629   3.087   0.100   4.223
34208SOL     OW 4630  10.504   9.550   0.563
34208SOL    HW1 4631  10.488   9.636   0.524
34208SOL    HW2 4632  10.554   9.502   0.496
34209SOL     OW 4633   6.333   8.535   6.192
34209SOL    HW1 4634   6.250   8.513   6.150
34209SOL    HW2 4635   6.383   8.580   6.124
34210SOL     OW 4636   2.364   6.583   1.062
34210SOL    HW1 4637   2.324   6.510   1.014
34210SOL    HW2 4638   2.414   6.630   0.995
34211SOL     OW 4639   1.288   2.234   5.626
34211SOL    HW1 4640   1.301   2.320   5.587
34211SOL    HW2 4641   1.308   2.246   5.718
34212SOL     OW 4642  10.163  10.613   7.045
34212SOL    HW1 4643  10.147  10.597   7.138
34212SOL    HW2 4644  10.196  10.530   7.011
34213SOL     OW 4645   7.675   6.270   0.828
34213SOL    HW1 4646   7.694   6.295   0.737
34213SOL    HW2 4647   7.626   6.188   0.820
34214SOL     OW 4648   8.123   5.327   8.008
34214SOL    HW1 4649   8.192   5.277   7.965
34214SOL    HW2 4650   8.063   5.350   7.937
34215SOL     OW 4651   5.724   6.261   6.434
34215SOL    HW1 4652   5.762   6.328   6.490
34215SOL    HW2 4653   5.666   6.211   6.491
34216SOL     OW 4654   5.975   1.400   2.580
34216SOL    HW1 4655   6.033   1.458   2.531
34216SOL    HW2 4656   5.905   1.456   2.612
34217SOL     OW 4657   2.723   0.269   8.570
34217SOL    HW1 4658   2.747   0.177   8.581
34217SOL    HW2 4659   2.743   0.287   8.478
34218SOL     OW 4660   2.155   5.552   1.544
34218SOL    HW1 4661   2.175   5.594   1.460
34218SOL    HW2 4662   2.232   5.498   1.562
34219SOL     OW 4663   3.082   8.505   2.377
34219SOL    HW1 4664   3.002   8.491   2.326
34219SOL    HW2 4665   3.097   8.421   2.421
34220SOL     OW 4666  10.253   4.123   2.136
34220SOL    HW1 4667  10.255   4.180   2.059
34220SOL    HW2 4668  10.166   4.083   2.134
34221SOL     OW 4669   0.802   6.071   6.286
34221SOL    HW1 4670   0.742   6.026   6.226
34221SOL    HW2 4671   0.817   6.008   6.356
34222SOL     OW 4672   7.502   6.712  10.720
34222SOL    HW1 4673   7.441   6.715  10.646
34222SOL    HW2 4674   7.481   6.630  10.765
34223SOL     OW 4675   7.345   0.735   4.019
34223SOL    HW1 4676   7.437   0.758   4.032
34223SOL    HW2 4677   7.335   0.650   4.062
34224SOL     OW 4678   1.864   5.048   1.904
34224SOL    HW1 4679   1.920   5.000   1.965
34224SOL    HW2 4680   1.925   5.090   1.844
34225SOL     OW 4681   0.181   3.122  10.113
34225SOL    HW1 4682   0.210   3.097  10.025
34225SOL    HW2 4683   0.122   3.196  10.098
34226SOL     OW 4684   9.724   8.827   3.793
34226SOL    HW1 4685   9.655   8.892   3.806
34226SOL    HW2 4686   9.723   8.774   3.872
34227SOL     OW 4687  10.570   1.474  10.643
34227SOL    HW1 4688  10.509   1.407  10.675
34227SOL    HW2 4689  10.544   1.489  10.552
34228SOL     OW 4690   9.574   1.333   5.597
34228SOL    HW1 4691   9.563   1.256   5.652
34228SOL    HW2 4692   9.593   1.404   5.658
34229SOL     OW 4693   7.835   8.994   5.614
34229SOL    HW1 4694   7.824   9.081   5.577
34229SOL    HW2 4695   7.829   9.007   5.708
34230SOL     OW 4696   3.009   7.840   9.940
34230SOL    HW1 4697   3.093   7.832   9.985
34230SOL    HW2 4698   3.032   7.833   9.847
34231SOL     OW 4699   4.940   8.665   7.882
34231SOL    HW1 4700   4.993   8.605   7.829
34231SOL    HW2 4701   4.850   8.635   7.868
34232SOL     OW 4702   7.147   5.312   5.978
34232SOL    HW1 4703   7.097   5.249   6.030
34232SOL    HW2 4704   7.224   5.262   5.948
34233SOL     OW 4705   6.246   8.139   5.583
34233SOL    HW1 4706   6.172   8.160   5.639
34233SOL    HW2 4707   6.258   8.044   5.594
34234SOL     OW 4708   7.498   2.950   6.281
34234SOL    HW1 4709   7.574   2.937   6.224
34234SOL    HW2 4710   7.525   3.018   6.342
34235SOL     OW 4711   2.835   5.883   1.290
34235SOL    HW1 4712   2.906   5.934   1.328
34235SOL    HW2 4713   2.859   5.875   1.197
34236SOL     OW 4714   3.459   0.274   2.522
34236SOL    HW1 4715   3.456   0.180   2.502
34236SOL    HW2 4716   3.532   0.307   2.469
34237SOL     OW 4717  10.257   9.271   3.899
34237SOL    HW1 4718  10.175   9.320   3.896
34237SOL    HW2 4719  10.325   9.338   3.905
34238SOL     OW 4720   3.613   4.290   9.743
34238SOL    HW1 4721   3.539   4.294   9.682
34238SOL    HW2 4722   3.572   4.281   9.829
34239SOL     OW 4723   0.796   8.785   3.270
34239SOL    HW1 4724   0.766   8.820   3.353
34239SOL    HW2 4725   0.784   8.856   3.207
34240SOL     OW 4726   9.432  10.650   8.597
34240SOL    HW1 4727   9.510  10.692   8.635
34240SOL    HW2 4728   9.423  10.690   8.510
34241SOL     OW 4729  10.682   9.007   8.897
34241SOL    HW1 4730  10.752   9.053   8.944
34241SOL    HW2 4731  10.656   8.936   8.955
34242SOL     OW 4732   6.628   0.195   8.984
34242SOL    HW1 4733   6.681   0.274   8.984
34242SOL    HW2 4734   6.538   0.226   8.987
34243SOL     OW 4735  10.223   8.709   7.559
34243SOL    HW1 4736  10.190   8.729   7.471
34243SOL    HW2 4737  10.147   8.675   7.607
34244SOL     OW 4738   1.409   9.533   5.230
34244SOL    HW1 4739   1.372   9.615   5.198
34244SOL    HW2 4740   1.383   9.529   5.322
34245SOL     OW 4741  10.121   4.379   7.089
34245SOL    HW1 4742  10.191   4.326   7.049
34245SOL    HW2 4743  10.114   4.455   7.031
34246SOL     OW 4744  10.385   8.666   2.395
34246SOL    HW1 4745  10.461   8.609   2.381
34246SOL    HW2 4746  10.360   8.694   2.307
34247SOL     OW 4747   3.478   5.869   5.682
34247SOL    HW1 4748   3.488   5.916   5.599
34247SOL    HW2 4749   3.406   5.913   5.726
34248SOL     OW 4750   8.145   2.352   6.652
34248SOL    HW1 4751   8.209   2.364   6.722
34248SOL    HW2 4752   8.194   2.307   6.583
34249SOL     OW 4753   8.208  10.436   4.468
34249SOL    HW1 4754   8.147  10.428   4.541
34249SOL    HW2 4755   8.286  10.388   4.496
34250SOL     OW 4756   9.850   6.698   0.421
34250SOL    HW1 4757   9.762   6.736   0.424
34250SOL    HW2 4758   9.909   6.770   0.443
34251SOL     OW 4759   7.946   5.509   9.597
34251SOL    HW1 4760   7.879   5.472   9.654
34251SOL    HW2 4761   8.028   5.472   9.629
34252SOL     OW 4762   4.970   6.810   5.594
34252SOL    HW1 4763   4.946   6.775   5.679
34252SOL    HW2 4764   5.064   6.792   5.586
34253SOL     OW 4765   8.358   9.471  10.917
34253SOL    HW1 4766   8.396   9.465  10.829
34253SOL    HW2 4767   8.332   9.562  10.926
34254SOL     OW 4768  10.390   7.986  11.099
34254SOL    HW1 4769  10.458   7.934  11.056
34254SOL    HW2 4770  10.409   8.076  11.073
34255SOL     OW 4771   8.049   7.729   4.941
34255SOL    HW1 4772   7.981   7.723   5.008
34255SOL    HW2 4773   8.089   7.642   4.939
34256SOL     OW 4774   0.383  10.811   5.679
34256SOL    HW1 4775   0.456  10.750   5.681
34256SOL    HW2 4776   0.318  10.773   5.738
34257SOL     OW 4777  10.643   7.461   0.024
34257SOL    HW1 4778  10.713   7.429   0.081
34257SOL    HW2 4779  10.584   7.386   0.014
34258SOL     OW 4780   8.031   6.030   5.019
34258SOL    HW1 4781   8.097   5.986   5.073
34258SOL    HW2 4782   7.960   6.050   5.079
34259SOL     OW 4783   8.179   4.350   6.309
34259SOL    HW1 4784   8.203   4.410   6.379
34259SOL    HW2 4785   8.106   4.393   6.265
34260SOL     OW 4786   0.113  10.241   5.710
34260SOL    HW1 4787   0.133  10.160   5.663
34260SOL    HW2 4788   0.019  10.254   5.696
34261SOL     OW 4789   1.393   7.043   5.863
34261SOL    HW1 4790   1.439   6.969   5.904
34261SOL    HW2 4791   1.326   7.002   5.808
34262SOL     OW 4792   3.871   2.784   4.172
34262SOL    HW1 4793   3.869   2.703   4.224
34262SOL    HW2 4794   3.884   2.754   4.082
34263SOL     OW 4795   1.975   9.922   1.131
34263SOL    HW1 4796   2.040   9.853   1.145
34263SOL    HW2 4797   1.993   9.953   1.042
34264SOL     OW 4798  10.440   1.383   2.054
34264SOL    HW1 4799  10.486   1.393   2.137
34264SOL    HW2 4800  10.499   1.420   1.988
34265SOL     OW 4801   5.671   3.067   1.952
34265SOL    HW1 4802   5.766   3.059   1.944
34265SOL    HW2 4803   5.656   3.087   2.044
34266SOL     OW 4804  10.197   9.957   6.131
34266SOL    HW1 4805  10.258  10.024   6.161
34266SOL    HW2 4806  10.253   9.881   6.114
34267SOL     OW 4807   3.316   9.996   4.215
34267SOL    HW1 4808   3.290  10.076   4.260
34267SOL    HW2 4809   3.254   9.930   4.246
34268SOL     OW 4810  10.673   5.120   3.781
34268SOL    HW1 4811  10.671   5.096   3.873
34268SOL    HW2 4812  10.720   5.048   3.738
34269SOL     OW 4813   3.713   5.502   4.092
34269SOL    HW1 4814   3.793   5.543   4.059
34269SOL    HW2 4815   3.646   5.527   4.028
34270SOL     OW 4816   1.358   8.981   9.978
34270SOL    HW1 4817   1.269   8.960   9.950
34270SOL    HW2 4818   1.410   8.975   9.898
34271SOL     OW 4819   2.800   4.900   6.795
34271SOL    HW1 4820   2.720   4.953   6.793
34271SOL    HW2 4821   2.792   4.842   6.719
34272SOL     OW 4822   3.788   5.479   3.252
34272SOL    HW1 4823   3.750   5.497   3.338
34272SOL    HW2 4824   3.713   5.456   3.197
34273SOL     OW 4825   2.761   8.382   1.464
34273SOL    HW1 4826   2.704   8.363   1.538
34273SOL    HW2 4827   2.838   8.327   1.478
34274SOL     OW 4828   5.353   9.714   7.592
34274SOL    HW1 4829   5.320   9.785   7.537
34274SOL    HW2 4830   5.275   9.672   7.628
34275SOL     OW 4831   7.484   4.894   4.006
34275SOL    HW1 4832   7.512   4.985   4.017
34275SOL    HW2 4833   7.433   4.875   4.084
34276SOL     OW 4834  10.388   9.854   3.284
34276SOL    HW1 4835  10.412   9.813   3.367
34276SOL    HW2 4836  10.468   9.849   3.230
34277SOL     OW 4837  10.740  10.262   9.742
34277SOL    HW1 4838  10.738  10.196   9.672
34277SOL    HW2 4839  10.727  10.212   9.823
34278SOL     OW 4840   6.770   7.018   7.488
34278SOL    HW1 4841   6.820   6.988   7.412
34278SOL    HW2 4842   6.709   6.946   7.505
34279SOL     OW 4843   1.883   9.639  10.234
34279SOL    HW1 4844   1.821   9.709  10.216
34279SOL    HW2 4845   1.969   9.677  10.214
34280SOL     OW 4846   0.669   8.946   3.050
34280SOL    HW1 4847   0.579   8.930   3.023
34280SOL    HW2 4848   0.669   9.036   3.082
34281SOL     OW 4849  10.496   6.937   4.385
34281SOL    HW1 4850  10.580   6.922   4.429
34281SOL    HW2 4851  10.481   7.031   4.393
34282SOL     OW 4852  10.032   8.905   4.308
34282SOL    HW1 4853   9.992   8.985   4.276
34282SOL    HW2 4854  10.089   8.933   4.379
34283SOL     OW 4855   2.721   6.989   0.146
34283SOL    HW1 4856   2.814   6.970   0.159
34283SOL    HW2 4857   2.680   6.903   0.138
34284SOL     OW 4858   3.110   0.309   4.075
34284SOL    HW1 4859   3.159   0.238   4.117
34284SOL    HW2 4860   3.042   0.332   4.138
34285SOL     OW 4861   8.615   9.487   1.364
34285SOL    HW1 4862   8.705   9.473   1.395
34285SOL    HW2 4863   8.599   9.414   1.303
34286SOL     OW 4864   5.554   7.567  10.725
34286SOL    HW1 4865   5.627   7.513  10.757
34286SOL    HW2 4866   5.488   7.503  10.697
34287SOL     OW 4867   8.223   7.838   9.388
34287SOL    HW1 4868   8.138   7.844   9.343
34287SOL    HW2 4869   8.214   7.764   9.448
34288SOL     OW 4870  10.931   1.654   0.934
34288SOL    HW1 4871  10.913   1.578   0.989
34288SOL    HW2 4872  10.851   1.666   0.883
34289SOL     OW 4873   9.483   1.164  10.053
34289SOL    HW1 4874   9.474   1.253  10.086
34289SOL    HW2 4875   9.418   1.158   9.983
34290SOL     OW 4876   6.975   6.855   8.426
34290SOL    HW1 4877   6.905   6.919   8.414
34290SOL    HW2 4878   7.053   6.898   8.391
34291SOL     OW 4879   9.370  10.228   2.275
34291SOL    HW1 4880   9.446  10.286   2.272
34291SOL    HW2 4881   9.377  10.184   2.359
34292SOL     OW 4882   3.254  10.855   1.562
34292SOL    HW1 4883   3.237  10.866   1.655
34292SOL    HW2 4884   3.298  10.936   1.536
34293SOL     OW 4885   2.712   7.193   4.088
34293SOL    HW1 4886   2.737   7.260   4.151
34293SOL    HW2 4887   2.637   7.229   4.041
34294SOL     OW 4888   8.996   7.276   2.002
34294SOL    HW1 4889   8.932   7.239   2.063
34294SOL    HW2 4890   9.040   7.345   2.052
34295SOL     OW 4891   0.290   8.604   7.272
34295SOL    HW1 4892   0.360   8.604   7.336
34295SOL    HW2 4893   0.237   8.680   7.295
34296SOL     OW 4894   2.366   8.862   1.501
34296SOL    HW1 4895   2.425   8.937   1.506
34296SOL    HW2 4896   2.370   8.834   1.409
34297SOL     OW 4897   8.813   7.055   8.626
34297SOL    HW1 4898   8.759   7.100   8.690
34297SOL    HW2 4899   8.859   6.988   8.676
34298SOL     OW 4900   7.966   5.353   5.469
34298SOL    HW1 4901   7.940   5.430   5.519
34298SOL    HW2 4902   7.922   5.280   5.512
34299SOL     OW 4903   4.509   9.723   7.402
34299SOL    HW1 4904   4.585   9.742   7.458
34299SOL    HW2 4905   4.546   9.716   7.314
34300SOL     OW 4906   7.675   7.426  10.717
34300SOL    HW1 4907   7.681   7.388  10.804
34300SOL    HW2 4908   7.679   7.350  10.658
34301SOL     OW 4909   5.262   2.993   4.676
34301SOL    HW1 4910   5.330   2.925   4.679
34301SOL    HW2 4911   5.206   2.974   4.751
34302SOL     OW 4912   1.161   2.444   2.930
34302SOL    HW1 4913   1.142   2.353   2.955
34302SOL    HW2 4914   1.254   2.443   2.907
34303SOL     OW 4915   7.317   6.624   2.617
34303SOL    HW1 4916   7.402   6.592   2.587
34303SOL    HW2 4917   7.264   6.631   2.537
34304SOL     OW 4918   7.497   9.955   3.701
34304SOL    HW1 4919   7.548  10.032   3.725
34304SOL    HW2 4920   7.525   9.935   3.611
34305SOL     OW 4921  10.711   7.837   9.214
34305SOL    HW1 4922  10.805   7.847   9.230
34305SOL    HW2 4923  10.703   7.836   9.118
34306SOL     OW 4924   0.826  10.941   2.751
34306SOL    HW1 4925   0.791  11.001   2.685
34306SOL    HW2 4926   0.921  10.946   2.740
34307SOL     OW 4927   0.193   1.136   9.428
34307SOL    HW1 4928   0.199   1.071   9.498
34307SOL    HW2 4929   0.268   1.194   9.443
34308SOL     OW 4930   6.737   0.485   7.877
34308SOL    HW1 4931   6.647   0.514   7.863
34308SOL    HW2 4932   6.766   0.532   7.954
34309SOL     OW 4933   9.926   1.900  10.805
34309SOL    HW1 4934  10.015   1.926  10.827
34309SOL    HW2 4935   9.918   1.810  10.838
34310SOL     OW 4936   7.546   6.606   5.051
34310SOL    HW1 4937   7.500   6.595   4.967
34310SOL    HW2 4938   7.595   6.687   5.040
34311SOL     OW 4939   9.460   5.139   8.011
34311SOL    HW1 4940   9.403   5.138   8.087
34311SOL    HW2 4941   9.497   5.227   8.010
34312SOL     OW 4942   4.812   7.489   9.332
34312SOL    HW1 4943   4.875   7.557   9.353
34312SOL    HW2 4944   4.815   7.482   9.236
34313SOL     OW 4945   0.454   3.697   8.428
34313SOL    HW1 4946   0.474   3.609   8.461
34313SOL    HW2 4947   0.539   3.740   8.423
34314SOL     OW 4948   4.076   1.361   1.178
34314SOL    HW1 4949   4.004   1.352   1.115
34314SOL    HW2 4950   4.155   1.353   1.124
34315SOL     OW 4951   8.422   4.309   5.551
34315SOL    HW1 4952   8.493   4.282   5.492
34315SOL    HW2 4953   8.388   4.389   5.512
34316SOL     OW 4954  10.745   0.683   5.285
34316SOL    HW1 4955  10.838   0.703   5.272
34316SOL    HW2 4956  10.722   0.626   5.211
34317SOL     OW 4957   0.453   0.129   3.503
34317SOL    HW1 4958   0.402   0.191   3.554
34317SOL    HW2 4959   0.399   0.050   3.499
34318SOL     OW 4960   3.915   6.097   3.547
34318SOL    HW1 4961   3.850   6.026   3.547
34318SOL    HW2 4962   3.887   6.155   3.476
34319SOL     OW 4963   8.593   9.587   7.111
34319SOL    HW1 4964   8.620   9.535   7.035
34319SOL    HW2 4965   8.673   9.597   7.163
34320SOL     OW 4966   1.116  10.333   4.804
34320SOL    HW1 4967   1.183  10.277   4.843
34320SOL    HW2 4968   1.062  10.360   4.878
34321SOL     OW 4969   1.294  10.679   8.612
34321SOL    HW1 4970   1.361  10.683   8.680
34321SOL    HW2 4971   1.342  10.659   8.531
34322SOL     OW 4972  10.755   4.289   6.980
34322SOL    HW1 4973  10.725   4.285   7.071
34322SOL    HW2 4974  10.841   4.331   6.985
34323SOL     OW 4975   3.574   4.890   2.827
34323SOL    HW1 4976   3.643   4.843   2.874
34323SOL    HW2 4977   3.515   4.920   2.895
34324SOL     OW 4978   6.847   5.363   0.032
34324SOL    HW1 4979   6.780   5.430   0.022
34324SOL    HW2 4980   6.800   5.286   0.064
34325SOL     OW 4981   1.978   0.603  10.524
34325SOL    HW1 4982   1.905   0.655  10.557
34325SOL    HW2 4983   1.944   0.513  10.521
34326SOL     OW 4984   8.402   9.633   1.122
34326SOL    HW1 4985   8.445   9.654   1.204
34326SOL    HW2 4986   8.386   9.717   1.080
34327SOL     OW 4987   1.504   4.969   2.954
34327SOL    HW1 4988   1.431   4.968   3.016
34327SOL    HW2 4989   1.569   4.911   2.993
34328SOL     OW 4990  10.246   5.235   7.569
34328SOL    HW1 4991  10.317   5.298   7.559
34328SOL    HW2 4992  10.200   5.237   7.485
34329SOL     OW 4993   1.297   4.282   5.715
34329SOL    HW1 4994   1.388   4.269   5.689
34329SOL    HW2 4995   1.300   4.355   5.777
34330SOL     OW 4996   0.060   4.516   6.025
34330SOL    HW1 4997   0.155   4.509   6.015
34330SOL    HW2 4998   0.025   4.452   5.963
34331SOL     OW 4999  10.098   7.873   4.523
34331SOL    HW1 5000  10.081   7.831   4.438
34331SOL    HW2 5001  10.135   7.803   4.577
34332SOL     OW 5002  11.059   3.645   6.320
34332SOL    HW1 5003  11.029   3.641   6.411
34332SOL    HW2 5004  11.154   3.652   6.326
34333SOL     OW 5005   5.159   3.059   8.359
34333SOL    HW1 5006   5.240   3.090   8.400
34333SOL    HW2 5007   5.116   3.138   8.327
34334SOL     OW 5008   0.634   6.551   7.419
34334SOL    HW1 5009   0.553   6.522   7.460
34334SOL    HW2 5010   0.611   6.633   7.375
34335SOL     OW 5011   1.270   3.914   3.500
34335SOL    HW1 5012   1.203   3.896   3.566
34335SOL    HW2 5013   1.243   3.863   3.423
34336SOL     OW 5014   5.519   0.741   5.059
34336SOL    HW1 5015   5.555   0.829   5.071
34336SOL    HW2 5016   5.508   0.732   4.964
34337SOL     OW 5017   8.901   0.203   9.546
34337SOL    HW1 5018   8.991   0.191   9.576
34337SOL    HW2 5019   8.906   0.275   9.483
34338SOL     OW 5020  11.092   0.408   3.862
34338SOL    HW1 5021  11.066   0.402   3.954
34338SOL    HW2 5022  11.126   0.497   3.852
34339SOL     OW 5023   4.951   7.872   6.538
34339SOL    HW1 5024   4.907   7.836   6.460
34339SOL    HW2 5025   4.915   7.822   6.611
34340SOL     OW 5026   9.195   5.472   2.758
34340SOL    HW1 5027   9.193   5.434   2.846
34340SOL    HW2 5028   9.288   5.491   2.742
34341SOL     OW 5029   8.498   9.838   2.501
34341SOL    HW1 5030   8.458   9.916   2.463
34341SOL    HW2 5031   8.592   9.851   2.488
34342SOL     OW 5032   1.703  10.685   7.304
34342SOL    HW1 5033   1.632  10.748   7.295
34342SOL    HW2 5034   1.661  10.606   7.337
34343SOL     OW 5035   9.993   8.352   4.670
34343SOL    HW1 5036  10.088   8.354   4.682
34343SOL    HW2 5037   9.981   8.309   4.585
34344SOL     OW 5038   1.131   9.351   6.599
34344SOL    HW1 5039   1.105   9.421   6.539
34344SOL    HW2 5040   1.224   9.367   6.615
34345SOL     OW 5041   5.991   5.599   7.580
34345SOL    HW1 5042   6.030   5.657   7.645
34345SOL    HW2 5043   5.964   5.657   7.509
34346SOL     OW 5044   0.001   7.488   5.560
34346SOL    HW1 5045   0.037   7.457   5.643
34346SOL    HW2 5046   0.072   7.537   5.519
34347SOL     OW 5047   2.313   1.304   2.054
34347SOL    HW1 5048   2.368   1.381   2.044
34347SOL    HW2 5049   2.339   1.247   1.981
34348SOL     OW 5050   7.230   3.053   5.879
34348SOL    HW1 5051   7.221   3.139   5.837
34348SOL    HW2 5052   7.183   2.993   5.821
34349SOL     OW 5053   6.656   5.425   3.826
34349SOL    HW1 5054   6.631   5.508   3.786
34349SOL    HW2 5055   6.749   5.435   3.847
34350SOL     OW 5056   8.654   9.460   1.009
34350SOL    HW1 5057   8.599   9.424   0.939
34350SOL    HW2 5058   8.723   9.508   0.962
34351SOL     OW 5059   2.555   3.675   5.389
34351SOL    HW1 5060   2.634   3.720   5.359
34351SOL    HW2 5061   2.493   3.685   5.317
34352SOL     OW 5062   6.610  10.798   6.711
34352SOL    HW1 5063   6.637  10.749   6.788
34352SOL    HW2 5064   6.525  10.835   6.735
34353SOL     OW 5065   5.147   6.463   3.967
34353SOL    HW1 5066   5.212   6.533   3.973
34353SOL    HW2 5067   5.125   6.442   4.058
34354SOL     OW 5068   9.178   6.333   7.561
34354SOL    HW1 5069   9.095   6.362   7.524
34354SOL    HW2 5070   9.188   6.385   7.641
34355SOL     OW 5071   8.082   0.088   0.355
34355SOL    HW1 5072   8.109   0.035   0.280
34355SOL    HW2 5073   8.005   0.136   0.324
34356SOL     OW 5074  10.444   9.841   3.989
34356SOL    HW1 5075  10.414   9.856   4.078
34356SOL    HW2 5076  10.455   9.746   3.983
34357SOL     OW 5077  10.365   5.858   6.767
34357SOL    HW1 5078  10.329   5.891   6.849
34357SOL    HW2 5079  10.459   5.875   6.773
34358SOL     OW 5080   5.018   2.843   4.223
34358SOL    HW1 5081   5.040   2.750   4.226
34358SOL    HW2 5082   5.054   2.879   4.304
34359SOL     OW 5083   6.982   5.513   8.016
34359SOL    HW1 5084   6.944   5.568   8.084
34359SOL    HW2 5085   7.040   5.571   7.967
34360SOL     OW 5086   8.422   2.886   0.475
34360SOL    HW1 5087   8.339   2.860   0.515
34360SOL    HW2 5088   8.401   2.965   0.426
34361SOL     OW 5089   1.334  11.017   6.570
34361SOL    HW1 5090   1.255  10.988   6.524
34361SOL    HW2 5091   1.369  11.087   6.515
34362SOL     OW 5092   5.034   0.232   3.171
34362SOL    HW1 5093   5.081   0.154   3.139
34362SOL    HW2 5094   5.041   0.227   3.266
34363SOL     OW 5095   0.819   1.256   1.671
34363SOL    HW1 5096   0.832   1.350   1.664
34363SOL    HW2 5097   0.808   1.240   1.764
34364SOL     OW 5098   8.413   6.573   7.360
34364SOL    HW1 5099   8.481   6.514   7.326
34364SOL    HW2 5100   8.372   6.524   7.431
34365SOL     OW 5101   6.236   8.617   4.463
34365SOL    HW1 5102   6.176   8.661   4.523
34365SOL    HW2 5103   6.231   8.524   4.487
34366SOL     OW 5104   8.146   6.452   6.200
34366SOL    HW1 5105   8.242   6.452   6.198
34366SOL    HW2 5106   8.121   6.369   6.158
34367SOL     OW 5107   7.199   4.661   3.405
34367SOL    HW1 5108   7.284   4.702   3.387
34367SOL    HW2 5109   7.197   4.584   3.347
34368SOL     OW 5110  10.151   4.551   3.485
34368SOL    HW1 5111  10.242   4.570   3.508
34368SOL    HW2 5112  10.149   4.456   3.470
34369SOL     OW 5113   0.705   8.283   9.372
34369SOL    HW1 5114   0.780   8.269   9.430
34369SOL    HW2 5115   0.743   8.319   9.292
34370SOL     OW 5116   9.758   0.638   4.381
34370SOL    HW1 5117   9.755   0.633   4.476
34370SOL    HW2 5118   9.669   0.661   4.355
34371SOL     OW 5119  11.093   9.634   7.651
34371SOL    HW1 5120  11.069   9.652   7.560
34371SOL    HW2 5121  11.187   9.650   7.654
34372SOL     OW 5122   8.643   8.540   5.892
34372SOL    HW1 5123   8.640   8.611   5.828
34372SOL    HW2 5124   8.652   8.461   5.839
34373SOL     OW 5125   0.918   7.511   3.555
34373SOL    HW1 5126   0.875   7.596   3.565
34373SOL    HW2 5127   0.882   7.457   3.625
34374SOL     OW 5128   6.689   3.979   1.871
34374SOL    HW1 5129   6.689   3.886   1.848
34374SOL    HW2 5130   6.725   3.982   1.959
34375SOL     OW 5131   3.402   6.512   6.716
34375SOL    HW1 5132   3.448   6.429   6.731
34375SOL    HW2 5133   3.383   6.511   6.622
34376SOL     OW 5134   7.839   1.919   0.250
34376SOL    HW1 5135   7.914   1.978   0.242
34376SOL    HW2 5136   7.793   1.948   0.329
34377SOL     OW 5137   7.451   5.891   6.699
34377SOL    HW1 5138   7.514   5.840   6.647
34377SOL    HW2 5139   7.486   5.889   6.788
34378SOL     OW 5140   4.889   3.985   3.423
34378SOL    HW1 5141   4.869   3.995   3.516
34378SOL    HW2 5142   4.973   4.030   3.411
34379SOL     OW 5143   2.026   8.589   0.237
34379SOL    HW1 5144   1.975   8.652   0.187
34379SOL    HW2 5145   1.999   8.602   0.327
34380SOL     OW 5146   1.725   4.660   8.579
34380SOL    HW1 5147   1.722   4.754   8.566
34380SOL    HW2 5148   1.794   4.647   8.644
34381SOL     OW 5149   3.124   3.082   2.515
34381SOL    HW1 5150   3.193   3.146   2.498
34381SOL    HW2 5151   3.043   3.127   2.492
34382SOL     OW 5152   0.142  10.205  10.839
34382SOL    HW1 5153   0.156  10.170  10.751
34382SOL    HW2 5154   0.200  10.281  10.844
34383SOL     OW 5155   3.531   4.765   4.784
34383SOL    HW1 5156   3.456   4.817   4.813
34383SOL    HW2 5157   3.521   4.681   4.829
34384SOL     OW 5158   7.652  10.963   2.836
34384SOL    HW1 5159   7.629  11.040   2.783
34384SOL    HW2 5160   7.639  10.992   2.926
34385SOL     OW 5161   1.692   6.935   7.252
34385SOL    HW1 5162   1.695   6.881   7.173
34385SOL    HW2 5163   1.606   6.977   7.249
34386SOL     OW 5164   5.259   7.137   9.194
34386SOL    HW1 5165   5.291   7.191   9.121
34386SOL    HW2 5166   5.262   7.047   9.160
34387SOL     OW 5167   6.630   4.425   6.663
34387SOL    HW1 5168   6.574   4.502   6.673
34387SOL    HW2 5169   6.683   4.422   6.742
34388SOL     OW 5170   2.054   3.283   8.005
34388SOL    HW1 5171   2.015   3.214   7.951
34388SOL    HW2 5172   1.986   3.306   8.068
34389SOL     OW 5173   7.973   1.480   7.480
34389SOL    HW1 5174   7.898   1.421   7.493
34389SOL    HW2 5175   7.936   1.556   7.435
34390SOL     OW 5176   3.211   3.951  10.818
34390SOL    HW1 5177   3.243   3.912  10.736
34390SOL    HW2 5178   3.132   3.901  10.838
34391SOL     OW 5179   5.347  10.422   4.717
34391SOL    HW1 5180   5.259  10.405   4.683
34391SOL    HW2 5181   5.345  10.514   4.742
34392SOL     OW 5182   1.753   5.987   6.974
34392SOL    HW1 5183   1.740   5.897   7.004
34392SOL    HW2 5184   1.830   5.982   6.916
34393SOL     OW 5185   1.847   8.915   0.439
34393SOL    HW1 5186   1.880   8.825   0.438
34393SOL    HW2 5187   1.757   8.907   0.469
34394SOL     OW 5188  11.050   6.122   0.459
34394SOL    HW1 5189  11.126   6.121   0.400
34394SOL    HW2 5190  10.984   6.174   0.413
34395SOL     OW 5191   9.392   7.561   2.138
34395SOL    HW1 5192   9.327   7.611   2.186
34395SOL    HW2 5193   9.343   7.522   2.065
34396SOL     OW 5194   7.305   5.238   6.775
34396SOL    HW1 5195   7.232   5.181   6.750
34396SOL    HW2 5196   7.304   5.308   6.710
34397SOL     OW 5197   4.591  10.700   6.046
34397SOL    HW1 5198   4.601  10.648   6.126
34397SOL    HW2 5199   4.596  10.636   5.975
34398SOL     OW 5200  10.676   1.721   2.169
34398SOL    HW1 5201  10.665   1.627   2.183
34398SOL    HW2 5202  10.771   1.732   2.160
34399SOL     OW 5203   9.913   8.288   6.244
34399SOL    HW1 5204   9.861   8.213   6.214
34399SOL    HW2 5205   9.966   8.253   6.315
34400SOL     OW 5206   6.257  10.114   2.773
34400SOL    HW1 5207   6.339  10.068   2.791
34400SOL    HW2 5208   6.282  10.187   2.716
34401SOL     OW 5209   0.951   0.126  10.680
34401SOL    HW1 5210   1.009   0.125  10.604
34401SOL    HW2 5211   0.881   0.065  10.656
34402SOL     OW 5212   8.514   5.285   2.630
34402SOL    HW1 5213   8.494   5.378   2.634
34402SOL    HW2 5214   8.557   5.273   2.545
34403SOL     OW 5215  10.808   5.948   5.852
34403SOL    HW1 5216  10.872   5.928   5.783
34403SOL    HW2 5217  10.806   5.869   5.907
34404SOL     OW 5218   3.565  10.047   2.412
34404SOL    HW1 5219   3.600   9.977   2.467
34404SOL    HW2 5220   3.482  10.071   2.453
34405SOL     OW 5221   2.676   2.894   6.040
34405SOL    HW1 5222   2.664   2.938   6.124
34405SOL    HW2 5223   2.679   2.965   5.976
34406SOL     OW 5224   6.535   9.605   7.250
34406SOL    HW1 5225   6.529   9.607   7.345
34406SOL    HW2 5226   6.470   9.540   7.223
34407SOL     OW 5227   6.965   8.863   7.798
34407SOL    HW1 5228   7.040   8.847   7.740
34407SOL    HW2 5229   6.998   8.925   7.863
34408SOL     OW 5230  10.184   0.044   1.899
34408SOL    HW1 5231  10.201   0.095   1.819
34408SOL    HW2 5232  10.270   0.011   1.924
34409SOL     OW 5233  10.482   8.690   1.405
34409SOL    HW1 5234  10.444   8.777   1.415
34409SOL    HW2 5235  10.570   8.706   1.372
34410SOL     OW 5236   2.669   1.351   5.028
34410SOL    HW1 5237   2.622   1.288   5.082
34410SOL    HW2 5238   2.695   1.301   4.950
34411SOL     OW 5239   7.486   1.278   8.196
34411SOL    HW1 5240   7.442   1.330   8.129
34411SOL    HW2 5241   7.484   1.188   8.161
34412SOL     OW 5242   3.647   7.877   7.276
34412SOL    HW1 5243   3.698   7.848   7.200
34412SOL    HW2 5244   3.597   7.951   7.243
34413SOL     OW 5245   3.647   5.991  10.005
34413SOL    HW1 5246   3.613   6.030  10.085
34413SOL    HW2 5247   3.709   5.924  10.035
34414SOL     OW 5248  10.274   5.883  10.052
34414SOL    HW1 5249  10.349   5.847  10.099
34414SOL    HW2 5250  10.298   5.875   9.959
34415SOL     OW 5251   3.612   6.915   0.850
34415SOL    HW1 5252   3.518   6.900   0.860
34415SOL    HW2 5253   3.653   6.847   0.904
34416SOL     OW 5254   2.538   6.811   3.987
34416SOL    HW1 5255   2.557   6.746   3.919
34416SOL    HW2 5256   2.570   6.893   3.950
34417SOL     OW 5257   1.266   6.641   0.937
34417SOL    HW1 5258   1.264   6.722   0.887
34417SOL    HW2 5259   1.310   6.579   0.879
34418SOL     OW 5260   3.846   1.183   8.048
34418SOL    HW1 5261   3.905   1.133   7.991
34418SOL    HW2 5262   3.807   1.117   8.106
34419SOL     OW 5263   2.054   8.979   8.992
34419SOL    HW1 5264   2.135   9.019   8.961
34419SOL    HW2 5265   2.056   8.890   8.954
34420SOL     OW 5266   9.723   9.762   4.754
34420SOL    HW1 5267   9.687   9.838   4.709
34420SOL    HW2 5268   9.793   9.797   4.809
34421SOL     OW 5269  10.977   4.995   9.033
34421SOL    HW1 5270  10.944   4.988   9.122
34421SOL    HW2 5271  11.071   4.980   9.041
34422SOL     OW 5272   6.524   8.465   6.782
34422SOL    HW1 5273   6.518   8.470   6.686
34422SOL    HW2 5274   6.529   8.371   6.801
34423SOL     OW 5275   7.719   7.702   1.943
34423SOL    HW1 5276   7.776   7.733   2.013
34423SOL    HW2 5277   7.768   7.629   1.903
34424SOL     OW 5278   9.562   8.028   8.589
34424SOL    HW1 5279   9.483   8.051   8.540
34424SOL    HW2 5280   9.575   7.935   8.571
34425SOL     OW 5281  10.121   4.137   2.982
34425SOL    HW1 5282  10.095   4.056   2.938
34425SOL    HW2 5283  10.114   4.117   3.075
34426SOL     OW 5284  10.115   9.496   8.945
34426SOL    HW1 5285  10.055   9.428   8.914
34426SOL    HW2 5286  10.196   9.449   8.965
34427SOL     OW 5287   3.053   8.814   7.238
34427SOL    HW1 5288   3.089   8.861   7.163
34427SOL    HW2 5289   3.085   8.724   7.227
34428SOL     OW 5290   2.521   6.692   2.700
34428SOL    HW1 5291   2.538   6.773   2.651
34428SOL    HW2 5292   2.600   6.678   2.752
34429SOL     OW 5293   5.011  10.500   2.856
34429SOL    HW1 5294   4.936  10.530   2.804
34429SOL    HW2 5295   5.063  10.449   2.794
34430SOL     OW 5296   7.202   4.886   1.747
34430SOL    HW1 5297   7.139   4.952   1.776
34430SOL    HW2 5298   7.177   4.806   1.793
34431SOL     OW 5299   9.252   8.774   5.520
34431SOL    HW1 5300   9.344   8.748   5.513
34431SOL    HW2 5301   9.204   8.691   5.525
34432SOL     OW 5302   8.366   2.185   4.244
34432SOL    HW1 5303   8.441   2.203   4.301
34432SOL    HW2 5304   8.349   2.268   4.200
34433SOL     OW 5305   0.048   9.507   3.465
34433SOL    HW1 5306   0.016   9.593   3.491
34433SOL    HW2 5307   0.103   9.478   3.537
34434SOL     OW 5308   3.440   2.376   7.207
34434SOL    HW1 5309   3.428   2.302   7.266
34434SOL    HW2 5310   3.351   2.408   7.190
34435SOL     OW 5311   6.343   6.434   0.346
34435SOL    HW1 5312   6.351   6.500   0.414
34435SOL    HW2 5313   6.378   6.354   0.386
34436SOL     OW 5314   7.075   6.276   4.649
34436SOL    HW1 5315   7.062   6.242   4.560
34436SOL    HW2 5316   7.022   6.355   4.652
34437SOL     OW 5317  10.056   3.316   8.891
34437SOL    HW1 5318  10.099   3.230   8.884
34437SOL    HW2 5319  10.091   3.354   8.971
34438SOL     OW 5320   6.040   5.782   4.852
34438SOL    HW1 5321   6.102   5.815   4.917
34438SOL    HW2 5322   6.074   5.814   4.768
34439SOL     OW 5323   7.024  10.593   8.203
34439SOL    HW1 5324   7.009  10.590   8.297
34439SOL    HW2 5325   6.943  10.559   8.165
34440SOL     OW 5326   1.557   2.515   3.055
34440SOL    HW1 5327   1.598   2.448   3.110
34440SOL    HW2 5328   1.626   2.580   3.042
34441SOL     OW 5329   8.654   2.746   5.429
34441SOL    HW1 5330   8.680   2.814   5.491
34441SOL    HW2 5331   8.605   2.792   5.361
34442SOL     OW 5332  10.232   1.274   5.040
34442SOL    HW1 5333  10.229   1.198   4.981
34442SOL    HW2 5334  10.283   1.244   5.115
34443SOL     OW 5335   9.536  10.206  10.627
34443SOL    HW1 5336   9.479  10.160  10.688
34443SOL    HW2 5337   9.507  10.176  10.540
34444SOL     OW 5338  10.762   2.449   9.955
34444SOL    HW1 5339  10.834   2.444  10.017
34444SOL    HW2 5340  10.684   2.428  10.006
34445SOL     OW 5341   1.105   6.058   8.271
34445SOL    HW1 5342   1.136   5.998   8.339
34445SOL    HW2 5343   1.158   6.137   8.282
34446SOL     OW 5344   0.831   8.283   9.105
34446SOL    HW1 5345   0.861   8.305   9.017
34446SOL    HW2 5346   0.825   8.187   9.104
34447SOL     OW 5347   2.666   0.217   7.119
34447SOL    HW1 5348   2.657   0.206   7.213
34447SOL    HW2 5349   2.589   0.174   7.082
34448SOL     OW 5350   3.623  10.872   6.319
34448SOL    HW1 5351   3.626  10.805   6.387
34448SOL    HW2 5352   3.709  10.867   6.276
34449SOL     OW 5353   5.015  10.268   1.705
34449SOL    HW1 5354   5.075  10.319   1.760
34449SOL    HW2 5355   4.928  10.300   1.728
34450SOL     OW 5356   5.626   6.765   4.443
34450SOL    HW1 5357   5.539   6.741   4.476
34450SOL    HW2 5358   5.658   6.685   4.401
34451SOL     OW 5359   5.491   7.642   6.333
34451SOL    HW1 5360   5.474   7.692   6.412
34451SOL    HW2 5361   5.523   7.706   6.270
34452SOL     OW 5362   9.338   6.252   2.762
34452SOL    HW1 5363   9.383   6.167   2.763
34452SOL    HW2 5364   9.284   6.251   2.841
34453SOL     OW 5365   4.405   6.709   8.743
34453SOL    HW1 5366   4.326   6.661   8.769
34453SOL    HW2 5367   4.473   6.641   8.737
34454SOL     OW 5368   7.905   2.517   4.404
34454SOL    HW1 5369   7.983   2.561   4.370
34454SOL    HW2 5370   7.842   2.587   4.418
34455SOL     OW 5371   0.773   8.625   6.585
34455SOL    HW1 5372   0.789   8.714   6.553
34455SOL    HW2 5373   0.679   8.612   6.575
34456SOL     OW 5374   9.393   5.839   4.777
34456SOL    HW1 5375   9.375   5.772   4.710
34456SOL    HW2 5376   9.444   5.905   4.731
34457SOL     OW 5377   5.228   9.272   3.193
34457SOL    HW1 5378   5.320   9.299   3.198
34457SOL    HW2 5379   5.219   9.233   3.106
34458SOL     OW 5380   6.083   6.921   5.264
34458SOL    HW1 5381   6.178   6.928   5.257
34458SOL    HW2 5382   6.069   6.834   5.302
34459SOL     OW 5383  10.451   3.312   2.636
34459SOL    HW1 5384  10.375   3.342   2.586
34459SOL    HW2 5385  10.468   3.381   2.699
34460SOL     OW 5386   8.903   7.468   7.430
34460SOL    HW1 5387   8.869   7.493   7.516
34460SOL    HW2 5388   8.957   7.390   7.447
34461SOL     OW 5389   8.776   8.317   4.985
34461SOL    HW1 5390   8.822   8.368   4.918
34461SOL    HW2 5391   8.772   8.228   4.948
34462SOL     OW 5392   1.438   7.609   1.496
34462SOL    HW1 5393   1.403   7.632   1.582
34462SOL    HW2 5394   1.361   7.585   1.444
34463SOL     OW 5395   0.739   8.335   9.729
34463SOL    HW1 5396   0.645   8.338   9.747
34463SOL    HW2 5397   0.776   8.286   9.802
34464SOL     OW 5398   4.302   7.194   3.434
34464SOL    HW1 5399   4.292   7.185   3.528
34464SOL    HW2 5400   4.269   7.111   3.399
34465SOL     OW 5401   1.035  10.178   4.165
34465SOL    HW1 5402   1.109  10.143   4.215
34465SOL    HW2 5403   1.069  10.258   4.125
34466SOL     OW 5404  10.612   5.433  10.700
34466SOL    HW1 5405  10.668   5.452  10.775
34466SOL    HW2 5406  10.571   5.349  10.721
34467SOL     OW 5407   9.397   8.382   8.964
34467SOL    HW1 5408   9.385   8.464   8.917
34467SOL    HW2 5409   9.454   8.330   8.906
34468SOL     OW 5410   0.476   7.207  10.103
34468SOL    HW1 5411   0.561   7.164  10.108
34468SOL    HW2 5412   0.482   7.279  10.165
34469SOL     OW 5413   6.581   5.854   2.913
34469SOL    HW1 5414   6.656   5.913   2.912
34469SOL    HW2 5415   6.565   5.837   3.005
34470SOL     OW 5416   0.047   7.071  11.064
34470SOL    HW1 5417   0.015   6.981  11.050
34470SOL    HW2 5418   0.119   7.062  11.126
34471SOL     OW 5419   1.192   4.991   8.683
34471SOL    HW1 5420   1.285   4.982   8.703
34471SOL    HW2 5421   1.154   4.907   8.710
34472SOL     OW 5422   7.377   4.255   0.011
34472SOL    HW1 5423   7.416   4.207   0.084
34472SOL    HW2 5424   7.443   4.320  -0.013
34473SOL     OW 5425   8.897   5.943   0.581
34473SOL    HW1 5426   8.911   5.973   0.670
34473SOL    HW2 5427   8.807   5.910   0.580
34474SOL     OW 5428   0.740  10.582   4.980
34474SOL    HW1 5429   0.736  10.625   4.894
34474SOL    HW2 5430   0.714  10.492   4.962
34475SOL     OW 5431   2.612   2.909   0.573
34475SOL    HW1 5432   2.587   2.817   0.584
34475SOL    HW2 5433   2.538   2.948   0.527
34476SOL     OW 5434  10.329   5.191   9.877
34476SOL    HW1 5435  10.398   5.149   9.928
34476SOL    HW2 5436  10.334   5.149   9.791
34477SOL     OW 5437   3.840   4.075   4.831
34477SOL    HW1 5438   3.909   4.008   4.829
34477SOL    HW2 5439   3.758   4.025   4.827
34478SOL     OW 5440   9.755   5.595   7.170
34478SOL    HW1 5441   9.721   5.506   7.182
34478SOL    HW2 5442   9.780   5.599   7.077
34479SOL     OW 5443   3.488   5.152   9.918
34479SOL    HW1 5444   3.581   5.173   9.912
34479SOL    HW2 5445   3.485   5.077   9.977
34480SOL     OW 5446   0.364   6.442   9.331
34480SOL    HW1 5447   0.357   6.455   9.236
34480SOL    HW2 5448   0.293   6.381   9.352
34481SOL     OW 5449   9.319   3.904   2.297
34481SOL    HW1 5450   9.363   3.906   2.212
34481SOL    HW2 5451   9.232   3.939   2.279
34482SOL     OW 5452   9.335   9.925   7.072
34482SOL    HW1 5453   9.346  10.016   7.046
34482SOL    HW2 5454   9.369   9.875   6.997
34483SOL     OW 5455   3.100   3.634  10.862
34483SOL    HW1 5456   3.098   3.539  10.848
34483SOL    HW2 5457   3.124   3.644  10.954
34484SOL     OW 5458   5.591   0.229   0.711
34484SOL    HW1 5459   5.575   0.210   0.803
34484SOL    HW2 5460   5.648   0.306   0.711
34485SOL     OW 5461   9.068   7.794   5.082
34485SOL    HW1 5462   9.055   7.700   5.068
34485SOL    HW2 5463   8.980   7.831   5.080
34486SOL     OW 5464   7.657   6.326   0.567
34486SOL    HW1 5465   7.569   6.311   0.533
34486SOL    HW2 5466   7.704   6.365   0.493
34487SOL     OW 5467   0.694   9.617   4.211
34487SOL    HW1 5468   0.659   9.558   4.144
34487SOL    HW2 5469   0.687   9.704   4.172
34488SOL     OW 5470   4.489   7.133   1.190
34488SOL    HW1 5471   4.527   7.137   1.278
34488SOL    HW2 5472   4.446   7.217   1.178
34489SOL     OW 5473   8.706   6.131   2.040
34489SOL    HW1 5474   8.747   6.210   2.005
34489SOL    HW2 5475   8.689   6.077   1.962
34490SOL     OW 5476   7.103  10.469   6.172
34490SOL    HW1 5477   7.088  10.533   6.241
34490SOL    HW2 5478   7.191  10.435   6.189
34491SOL     OW 5479   7.766   7.910   1.046
34491SOL    HW1 5480   7.717   7.909   0.963
34491SOL    HW2 5481   7.700   7.897   1.113
34492SOL     OW 5482   9.977   6.638   4.472
34492SOL    HW1 5483   9.946   6.603   4.388
34492SOL    HW2 5484  10.017   6.722   4.450
34493SOL     OW 5485   0.006   6.796  11.028
34493SOL    HW1 5486  -0.047   6.755  11.096
34493SOL    HW2 5487   0.028   6.724  10.969
34494SOL     OW 5488   6.963   5.490   0.949
34494SOL    HW1 5489   6.887   5.524   0.902
34494SOL    HW2 5490   6.966   5.397   0.924
34495SOL     OW 5491   1.819   4.130   1.297
34495SOL    HW1 5492   1.855   4.044   1.317
34495SOL    HW2 5493   1.861   4.154   1.214
34496SOL     OW 5494  10.496   7.015   1.138
34496SOL    HW1 5495  10.576   6.991   1.185
34496SOL    HW2 5496  10.468   7.097   1.179
34497SOL     OW 5497   1.114   2.667   3.986
34497SOL    HW1 5498   1.173   2.599   4.019
34497SOL    HW2 5499   1.123   2.739   4.047
34498SOL     OW 5500  10.530   0.871   9.371
34498SOL    HW1 5501  10.526   0.950   9.424
34498SOL    HW2 5502  10.440   0.859   9.340
34499SOL     OW 5503   9.047   6.688   2.220
34499SOL    HW1 5504   9.109   6.621   2.190
34499SOL    HW2 5505   8.965   6.665   2.177
34500SOL     OW 5506   2.261   8.474   9.092
34500SOL    HW1 5507   2.228   8.528   9.163
34500SOL    HW2 5508   2.253   8.384   9.124
34501SOL     OW 5509   2.482   8.314   8.363
34501SOL    HW1 5510   2.577   8.318   8.378
34501SOL    HW2 5511   2.443   8.331   8.448
34502SOL     OW 5512   1.600   9.621   7.904
34502SOL    HW1 5513   1.686   9.657   7.927
34502SOL    HW2 5514   1.586   9.551   7.967
34503SOL     OW 5515   2.284   3.838  10.586
34503SOL    HW1 5516   2.364   3.891  10.587
34503SOL    HW2 5517   2.214   3.899  10.606
34504SOL     OW 5518  10.839   5.848   2.782
34504SOL    HW1 5519  10.877   5.917   2.727
34504SOL    HW2 5520  10.883   5.768   2.753
34505SOL     OW 5521   9.483   3.645   7.614
34505SOL    HW1 5522   9.410   3.631   7.554
34505SOL    HW2 5523   9.561   3.630   7.560
34506SOL     OW 5524   8.486   0.891   0.596
34506SOL    HW1 5525   8.499   0.854   0.683
34506SOL    HW2 5526   8.393   0.880   0.578
34507SOL     OW 5527  10.869   4.970   6.745
34507SOL    HW1 5528  10.842   5.007   6.661
34507SOL    HW2 5529  10.920   5.039   6.786
34508SOL     OW 5530   2.512   3.112   6.832
34508SOL    HW1 5531   2.424   3.134   6.860
34508SOL    HW2 5532   2.530   3.027   6.873
34509SOL     OW 5533   0.101   2.682   4.164
34509SOL    HW1 5534   0.098   2.682   4.068
34509SOL    HW2 5535   0.020   2.637   4.190
34510SOL     OW 5536   8.745   8.482   8.412
34510SOL    HW1 5537   8.653   8.498   8.431
34510SOL    HW2 5538   8.744   8.425   8.335
34511SOL     OW 5539   0.432   4.908   4.959
34511SOL    HW1 5540   0.522   4.909   4.926
34511SOL    HW2 5541   0.421   4.993   5.001
34512SOL     OW 5542  10.615  10.487   9.752
34512SOL    HW1 5543  10.562  10.496   9.831
34512SOL    HW2 5544  10.660  10.403   9.762
34513SOL     OW 5545   8.738   8.906   6.958
34513SOL    HW1 5546   8.751   8.983   6.903
34513SOL    HW2 5547   8.676   8.852   6.909
34514SOL     OW 5548   9.834   5.908   7.007
34514SOL    HW1 5549   9.835   5.819   6.972
34514SOL    HW2 5550   9.927   5.930   7.019
34515SOL     OW 5551   8.383  10.974   5.507
34515SOL    HW1 5552   8.376  11.035   5.580
34515SOL    HW2 5553   8.295  10.938   5.497
34516SOL     OW 5554   0.813  10.956   9.163
34516SOL    HW1 5555   0.836  10.930   9.074
34516SOL    HW2 5556   0.869  11.032   9.181
34517SOL     OW 5557  10.191   3.751   2.271
34517SOL    HW1 5558  10.253   3.771   2.341
34517SOL    HW2 5559  10.246   3.744   2.192
34518SOL     OW 5560   8.785   4.381   4.004
34518SOL    HW1 5561   8.784   4.383   4.099
34518SOL    HW2 5562   8.710   4.433   3.978
34519SOL     OW 5563   9.152   4.043   3.861
34519SOL    HW1 5564   9.132   3.954   3.892
34519SOL    HW2 5565   9.201   4.083   3.932
34520SOL     OW 5566  10.395   3.515   8.293
34520SOL    HW1 5567  10.433   3.508   8.380
34520SOL    HW2 5568  10.305   3.542   8.308
34521SOL     OW 5569   0.646   5.551   0.973
34521SOL    HW1 5570   0.562   5.579   1.008
34521SOL    HW2 5571   0.682   5.492   1.039
34522SOL     OW 5572   2.935   8.924   6.460
34522SOL    HW1 5573   2.970   8.835   6.471
34522SOL    HW2 5574   2.997   8.980   6.507
34523SOL     OW 5575   3.125   8.101  10.124
34523SOL    HW1 5576   3.199   8.039  10.120
34523SOL    HW2 5577   3.086   8.086  10.210
34524SOL     OW 5578   9.171   1.616   9.351
34524SOL    HW1 5579   9.162   1.700   9.306
34524SOL    HW2 5580   9.084   1.576   9.346
34525SOL     OW 5581   0.562   5.605   9.732
34525SOL    HW1 5582   0.517   5.608   9.648
34525SOL    HW2 5583   0.501   5.560   9.790
34526SOL     OW 5584  10.097   2.724   0.465
34526SOL    HW1 5585  10.111   2.818   0.459
34526SOL    HW2 5586  10.030   2.714   0.533
34527SOL     OW 5587   5.820   6.132   2.057
34527SOL    HW1 5588   5.868   6.189   1.997
34527SOL    HW2 5589   5.875   6.054   2.064
34528SOL     OW 5590   2.808  11.067   4.661
34528SOL    HW1 5591   2.777  10.987   4.702
34528SOL    HW2 5592   2.729  11.111   4.630
34529SOL     OW 5593   0.314   5.983   6.872
34529SOL    HW1 5594   0.227   5.979   6.831
34529SOL    HW2 5595   0.315   6.066   6.919
34530SOL     OW 5596   2.732   2.371   4.363
34530SOL    HW1 5597   2.697   2.284   4.341
34530SOL    HW2 5598   2.759   2.364   4.454
34531SOL     OW 5599   0.369   9.756   4.296
34531SOL    HW1 5600   0.312   9.680   4.307
34531SOL    HW2 5601   0.413   9.740   4.212
34532SOL     OW 5602   2.323   9.197   6.664
34532SOL    HW1 5603   2.252   9.230   6.609
34532SOL    HW2 5604   2.283   9.184   6.750
34533SOL     OW 5605   9.688  10.621   0.174
34533SOL    HW1 5606   9.636  10.557   0.222
34533SOL    HW2 5607   9.630  10.653   0.105
34534SOL     OW 5608   2.898   5.974   7.120
34534SOL    HW1 5609   2.987   6.009   7.111
34534SOL    HW2 5610   2.853   6.036   7.177
34535SOL     OW 5611   3.862   2.047   0.240
34535SOL    HW1 5612   3.909   2.129   0.254
34535SOL    HW2 5613   3.915   1.981   0.285
34536SOL     OW 5614   4.123  10.224   9.233
34536SOL    HW1 5615   4.075  10.236   9.151
34536SOL    HW2 5616   4.076  10.277   9.296
34537SOL     OW 5617   0.038   9.858   4.336
34537SOL    HW1 5618  -0.057   9.850   4.341
34537SOL    HW2 5619   0.056   9.859   4.242
34538SOL     OW 5620   5.672   4.635   2.960
34538SOL    HW1 5621   5.706   4.547   2.975
34538SOL    HW2 5622   5.643   4.664   3.046
34539SOL     OW 5623   2.479  10.019   1.848
34539SOL    HW1 5624   2.530   9.938   1.844
34539SOL    HW2 5625   2.516  10.067   1.921
34540SOL     OW 5626   8.220   2.926  10.012
34540SOL    HW1 5627   8.199   2.842  10.053
34540SOL    HW2 5628   8.316   2.926  10.005
34541SOL     OW 5629   9.197   8.755   9.582
34541SOL    HW1 5630   9.238   8.816   9.642
34541SOL    HW2 5631   9.119   8.800   9.550
34542SOL     OW 5632   4.342   6.902   1.253
34542SOL    HW1 5633   4.266   6.945   1.290
34542SOL    HW2 5634   4.395   6.973   1.216
34543SOL     OW 5635   7.405   1.454  10.035
34543SOL    HW1 5636   7.405   1.463   9.939
34543SOL    HW2 5637   7.492   1.485  10.062
34544SOL     OW 5638   6.544   3.938   0.409
34544SOL    HW1 5639   6.518   4.025   0.380
34544SOL    HW2 5640   6.563   3.891   0.327
34545SOL     OW 5641   9.295   5.911   5.649
34545SOL    HW1 5642   9.326   5.859   5.574
34545SOL    HW2 5643   9.241   5.979   5.610
34546SOL     OW 5644   1.222   5.549   0.269
34546SOL    HW1 5645   1.133   5.518   0.252
34546SOL    HW2 5646   1.212   5.616   0.335
34547SOL     OW 5647   1.317   4.887   3.128
34547SOL    HW1 5648   1.303   4.792   3.135
34547SOL    HW2 5649   1.370   4.909   3.204
34548SOL     OW 5650   8.998   8.166   5.589
34548SOL    HW1 5651   9.085   8.205   5.581
34548SOL    HW2 5652   8.956   8.215   5.659
34549SOL     OW 5653   1.156  11.049   5.988
34549SOL    HW1 5654   1.214  11.032   5.914
34549SOL    HW2 5655   1.185  11.134   6.022
34550SOL     OW 5656   4.426   1.007   8.419
34550SOL    HW1 5657   4.424   0.947   8.493
34550SOL    HW2 5658   4.504   0.981   8.369
34551SOL     OW 5659   6.717   4.862  10.393
34551SOL    HW1 5660   6.803   4.854  10.350
34551SOL    HW2 5661   6.737   4.868  10.486
34552SOL     OW 5662   3.289   1.021   3.660
34552SOL    HW1 5663   3.378   1.041   3.629
34552SOL    HW2 5664   3.238   1.009   3.579
34553SOL     OW 5665   8.700   7.891   2.787
34553SOL    HW1 5666   8.658   7.898   2.872
34553SOL    HW2 5667   8.709   7.797   2.772
34554SOL     OW 5668   2.107   5.089   8.374
34554SOL    HW1 5669   2.095   5.038   8.294
34554SOL    HW2 5670   2.161   5.033   8.430
34555SOL     OW 5671   8.973   4.035   1.708
34555SOL    HW1 5672   8.955   4.034   1.802
34555SOL    HW2 5673   9.066   4.056   1.701
34556SOL     OW 5674   7.580   6.258   8.081
34556SOL    HW1 5675   7.585   6.295   8.169
34556SOL    HW2 5676   7.597   6.331   8.022
34557SOL     OW 5677   5.635   6.413   6.235
34557SOL    HW1 5678   5.699   6.396   6.165
34557SOL    HW2 5679   5.656   6.349   6.303
34558SOL     OW 5680   8.164   8.340   4.167
34558SOL    HW1 5681   8.080   8.385   4.171
34558SOL    HW2 5682   8.229   8.410   4.158
34559SOL     OW 5683   5.066   8.657   9.677
34559SOL    HW1 5684   4.989   8.711   9.664
34559SOL    HW2 5685   5.045   8.574   9.633
34560SOL     OW 5686   2.711   8.474   0.796
34560SOL    HW1 5687   2.617   8.478   0.780
34560SOL    HW2 5688   2.743   8.561   0.774
34561SOL     OW 5689   0.614   9.391   7.371
34561SOL    HW1 5690   0.521   9.381   7.353
34561SOL    HW2 5691   0.653   9.410   7.285
34562SOL     OW 5692   4.109   0.467   7.603
34562SOL    HW1 5693   4.154   0.549   7.584
34562SOL    HW2 5694   4.023   0.477   7.562
34563SOL     OW 5695   9.171   9.647   4.301
34563SOL    HW1 5696   9.170   9.688   4.214
34563SOL    HW2 5697   9.091   9.678   4.343
34564SOL     OW 5698   7.591   7.083   4.407
34564SOL    HW1 5699   7.536   7.054   4.480
34564SOL    HW2 5700   7.529   7.106   4.338
34565SOL     OW 5701  10.880   9.796   4.335
34565SOL    HW1 5702  10.843   9.754   4.257
34565SOL    HW2 5703  10.834   9.754   4.408
34566SOL     OW 5704   7.363   6.933   4.222
34566SOL    HW1 5705   7.287   6.875   4.222
34566SOL    HW2 5706   7.330   7.016   4.256
34567SOL     OW 5707   2.361   7.887   5.243
34567SOL    HW1 5708   2.373   7.931   5.159
34567SOL    HW2 5709   2.267   7.891   5.259
34568SOL     OW 5710   3.426   4.611   3.647
34568SOL    HW1 5711   3.493   4.678   3.637
34568SOL    HW2 5712   3.349   4.658   3.679
34569SOL     OW 5713   5.992  10.306   2.261
34569SOL    HW1 5714   6.045  10.354   2.197
34569SOL    HW2 5715   5.929  10.370   2.294
34570SOL     OW 5716   3.739   5.885   3.434
34570SOL    HW1 5717   3.703   5.839   3.509
34570SOL    HW2 5718   3.663   5.921   3.389
34571SOL     OW 5719   0.434   9.947   3.876
34571SOL    HW1 5720   0.402   9.927   3.788
34571SOL    HW2 5721   0.460  10.039   3.872
34572SOL     OW 5722   9.620   8.342   4.303
34572SOL    HW1 5723   9.619   8.425   4.256
34572SOL    HW2 5724   9.672   8.359   4.381
34573SOL     OW 5725   9.968   3.935   8.323
34573SOL    HW1 5726   9.926   3.855   8.355
34573SOL    HW2 5727  10.031   3.904   8.258
34574SOL     OW 5728   9.486   4.610  10.143
34574SOL    HW1 5729   9.520   4.649  10.223
34574SOL    HW2 5730   9.393   4.598  10.160
34575SOL     OW 5731   6.418   6.107   3.586
34575SOL    HW1 5732   6.338   6.066   3.552
34575SOL    HW2 5733   6.405   6.109   3.681
34576SOL     OW 5734   5.828  10.103   2.322
34576SOL    HW1 5735   5.896  10.149   2.272
34576SOL    HW2 5736   5.781  10.172   2.368
34577SOL     OW 5737   7.746   2.219   9.977
34577SOL    HW1 5738   7.781   2.299  10.015
34577SOL    HW2 5739   7.823   2.166   9.958
34578SOL     OW 5740   4.940   9.050   2.604
34578SOL    HW1 5741   4.884   9.127   2.606
34578SOL    HW2 5742   4.894   8.988   2.547
34579SOL     OW 5743   6.677   5.916   5.856
34579SOL    HW1 5744   6.662   5.821   5.860
34579SOL    HW2 5745   6.749   5.931   5.917
34580SOL     OW 5746   1.189   0.611   3.921
34580SOL    HW1 5747   1.173   0.540   3.859
34580SOL    HW2 5748   1.103   0.630   3.959
34581SOL     OW 5749   6.827   7.529   2.625
34581SOL    HW1 5750   6.826   7.446   2.576
34581SOL    HW2 5751   6.825   7.597   2.557
34582SOL     OW 5752   7.854   2.066  10.882
34582SOL    HW1 5753   7.767   2.026  10.886
34582SOL    HW2 5754   7.891   2.034  10.799
34583SOL     OW 5755   3.997  10.403  10.186
34583SOL    HW1 5756   3.932  10.392  10.117
34583SOL    HW2 5757   3.985  10.327  10.243
34584SOL     OW 5758   7.564   9.541   5.246
34584SOL    HW1 5759   7.529   9.573   5.163
34584SOL    HW2 5760   7.600   9.618   5.288
34585SOL     OW 5761   9.929   2.038   8.772
34585SOL    HW1 5762   9.934   2.104   8.703
34585SOL    HW2 5763   9.936   2.087   8.853
34586SOL     OW 5764   7.085   1.634   9.957
34586SOL    HW1 5765   7.107   1.613  10.047
34586SOL    HW2 5766   7.121   1.721   9.943
34587SOL     OW 5767   1.688   7.548   2.537
34587SOL    HW1 5768   1.719   7.627   2.580
34587SOL    HW2 5769   1.768   7.505   2.506
34588SOL     OW 5770   8.191   5.331   0.210
34588SOL    HW1 5771   8.145   5.401   0.164
34588SOL    HW2 5772   8.239   5.375   0.280
34589SOL     OW 5773   8.631   0.370   8.142
34589SOL    HW1 5774   8.545   0.397   8.110
34589SOL    HW2 5775   8.614   0.334   8.229
34590SOL     OW 5776   8.449   2.832   6.841
34590SOL    HW1 5777   8.382   2.898   6.824
34590SOL    HW2 5778   8.420   2.755   6.791
34591SOL     OW 5779   5.362   0.349   7.334
34591SOL    HW1 5780   5.293   0.351   7.400
34591SOL    HW2 5781   5.441   0.379   7.379
34592SOL     OW 5782   7.332   9.049   7.627
34592SOL    HW1 5783   7.254   9.025   7.577
34592SOL    HW2 5784   7.381   8.967   7.635
34593SOL     OW 5785   5.384   5.716   2.713
34593SOL    HW1 5786   5.453   5.712   2.779
34593SOL    HW2 5787   5.303   5.712   2.763
34594SOL     OW 5788   1.321   7.665   2.247
34594SOL    HW1 5789   1.320   7.732   2.315
34594SOL    HW2 5790   1.328   7.714   2.165
34595SOL     OW 5791   9.203  10.998   6.299
34595SOL    HW1 5792   9.252  11.072   6.335
34595SOL    HW2 5793   9.113  11.012   6.327
34596SOL     OW 5794   6.541   8.403   4.901
34596SOL    HW1 5795   6.548   8.362   4.814
34596SOL    HW2 5796   6.622   8.379   4.945
34597SOL     OW 5797   6.268   8.047   7.845
34597SOL    HW1 5798   6.210   8.118   7.818
34597SOL    HW2 5799   6.353   8.089   7.859
34598SOL     OW 5800   8.361   8.877   5.657
34598SOL    HW1 5801   8.334   8.955   5.609
34598SOL    HW2 5802   8.444   8.852   5.617
34599SOL     OW 5803   0.432   1.873   0.018
34599SOL    HW1 5804   0.435   1.827   0.102
34599SOL    HW2 5805   0.521   1.866  -0.016
34600SOL     OW 5806   1.168   5.472   5.302
34600SOL    HW1 5807   1.259   5.499   5.317
34600SOL    HW2 5808   1.173   5.377   5.292
34601SOL     OW 5809   6.651   8.806  10.299
34601SOL    HW1 5810   6.745   8.815  10.281
34601SOL    HW2 5811   6.612   8.789  10.213
34602SOL     OW 5812   9.557   2.370   7.955
34602SOL    HW1 5813   9.530   2.453   7.916
34602SOL    HW2 5814   9.579   2.315   7.879
34603SOL     OW 5815   5.795   0.906   9.631
34603SOL    HW1 5816   5.814   0.868   9.716
34603SOL    HW2 5817   5.729   0.848   9.593
34604SOL     OW 5818  10.044   5.914   2.838
34604SOL    HW1 5819   9.979   5.909   2.768
34604SOL    HW2 5820  10.040   5.828   2.881
34605SOL     OW 5821   4.908   6.742   2.533
34605SOL    HW1 5822   4.869   6.654   2.536
34605SOL    HW2 5823   4.901   6.767   2.441
34606SOL     OW 5824   6.383  10.995   6.026
34606SOL    HW1 5825   6.394  10.948   6.108
34606SOL    HW2 5826   6.470  10.993   5.985
34607SOL     OW 5827   6.526   7.093   1.031
34607SOL    HW1 5828   6.553   7.081   1.122
34607SOL    HW2 5829   6.605   7.123   0.986
34608SOL     OW 5830   9.847  10.800   9.446
34608SOL    HW1 5831   9.937  10.768   9.443
34608SOL    HW2 5832   9.842  10.851   9.527
34609SOL     OW 5833   9.078   6.545   4.887
34609SOL    HW1 5834   9.159   6.496   4.869
34609SOL    HW2 5835   9.108   6.627   4.925
34610SOL     OW 5836  10.490   5.528  10.111
34610SOL    HW1 5837  10.416   5.516  10.170
34610SOL    HW2 5838  10.451   5.529  10.023
34611SOL     OW 5839   8.652   4.521   5.996
34611SOL    HW1 5840   8.719   4.469   6.042
34611SOL    HW2 5841   8.640   4.475   5.913
34612SOL     OW 5842   8.024   9.383   1.089
34612SOL    HW1 5843   7.995   9.372   1.179
34612SOL    HW2 5844   8.112   9.419   1.096
34613SOL     OW 5845   9.452   0.248   7.152
34613SOL    HW1 5846   9.492   0.163   7.170
34613SOL    HW2 5847   9.440   0.288   7.238
34614SOL     OW 5848   9.832  10.128   3.626
34614SOL    HW1 5849   9.843  10.195   3.693
34614SOL    HW2 5850   9.751  10.152   3.581
34615SOL     OW 5851   4.854   7.653   7.166
34615SOL    HW1 5852   4.927   7.713   7.151
34615SOL    HW2 5853   4.894   7.566   7.169
34616SOL     OW 5854   5.823   9.349   4.458
34616SOL    HW1 5855   5.748   9.334   4.516
34616SOL    HW2 5856   5.839   9.263   4.418
34617SOL     OW 5857   9.103   1.939   4.363
34617SOL    HW1 5858   9.031   1.969   4.419
34617SOL    HW2 5859   9.111   1.845   4.382
34618SOL     OW 5860   4.870   0.484   8.889
34618SOL    HW1 5861   4.826   0.402   8.866
34618SOL    HW2 5862   4.948   0.485   8.833
34619SOL     OW 5863   8.876   5.802   7.782
34619SOL    HW1 5864   8.803   5.819   7.841
34619SOL    HW2 5865   8.900   5.888   7.748
34620SOL     OW 5866   9.567   4.751  10.411
34620SOL    HW1 5867   9.571   4.655  10.414
34620SOL    HW2 5868   9.639   4.780  10.467
34621SOL     OW 5869   7.886   5.945   6.208
34621SOL    HW1 5870   7.937   5.908   6.136
34621SOL    HW2 5871   7.866   6.034   6.180
34622SOL     OW 5872   7.558   6.650   7.399
34622SOL    HW1 5873   7.504   6.580   7.436
34622SOL    HW2 5874   7.648   6.622   7.417
34623SOL     OW 5875   8.412   8.048   5.663
34623SOL    HW1 5876   8.392   8.067   5.571
34623SOL    HW2 5877   8.504   8.072   5.673
34624SOL     OW 5878   0.775   3.416   4.546
34624SOL    HW1 5879   0.754   3.350   4.612
34624SOL    HW2 5880   0.763   3.499   4.591
34625SOL     OW 5881   8.218   8.213   6.844
34625SOL    HW1 5882   8.199   8.215   6.938
34625SOL    HW2 5883   8.229   8.120   6.824
34626SOL     OW 5884   8.103   9.110   6.120
34626SOL    HW1 5885   8.153   9.158   6.185
34626SOL    HW2 5886   8.036   9.064   6.170
34627SOL     OW 5887   1.423   6.435   5.983
34627SOL    HW1 5888   1.461   6.354   6.017
34627SOL    HW2 5889   1.438   6.500   6.052
34628SOL     OW 5890   7.750   6.608   5.294
34628SOL    HW1 5891   7.798   6.612   5.211
34628SOL    HW2 5892   7.749   6.698   5.326
34629SOL     OW 5893   3.896   3.331   9.757
34629SOL    HW1 5894   3.975   3.354   9.805
34629SOL    HW2 5895   3.862   3.254   9.802
34630SOL     OW 5896   9.339   0.203   1.002
34630SOL    HW1 5897   9.430   0.234   1.005
34630SOL    HW2 5898   9.286   0.283   1.002
34631SOL     OW 5899   5.262   7.781   9.567
34631SOL    HW1 5900   5.224   7.862   9.601
34631SOL    HW2 5901   5.321   7.751   9.635
34632SOL     OW 5902   0.586   1.125   9.672
34632SOL    HW1 5903   0.580   1.150   9.580
34632SOL    HW2 5904   0.569   1.205   9.720
34633SOL     OW 5905   8.289   5.008   3.020
34633SOL    HW1 5906   8.323   5.078   2.964
34633SOL    HW2 5907   8.194   5.017   3.015
34634SOL     OW 5908   8.156   3.700   3.880
34634SOL    HW1 5909   8.190   3.732   3.796
34634SOL    HW2 5910   8.233   3.692   3.935
34635SOL     OW 5911   6.991   5.571  10.895
34635SOL    HW1 5912   6.975   5.515  10.971
34635SOL    HW2 5913   7.068   5.533  10.853
34636SOL     OW 5914   7.716   1.010   4.611
34636SOL    HW1 5915   7.758   0.965   4.684
34636SOL    HW2 5916   7.740   0.957   4.534
34637SOL     OW 5917   2.546   2.286   2.793
34637SOL    HW1 5918   2.577   2.320   2.876
34637SOL    HW2 5919   2.454   2.312   2.788
34638SOL     OW 5920   2.433   8.196   5.427
34638SOL    HW1 5921   2.372   8.200   5.500
34638SOL    HW2 5922   2.380   8.218   5.350
34639SOL     OW 5923   9.731  10.082   1.087
34639SOL    HW1 5924   9.731   9.995   1.046
34639SOL    HW2 5925   9.776  10.069   1.170
34640SOL     OW 5926   2.744   0.271   4.888
34640SOL    HW1 5927   2.654   0.242   4.876
34640SOL    HW2 5928   2.795   0.214   4.831
34641SOL     OW 5929   8.499   7.082  10.551
34641SOL    HW1 5930   8.579   7.062  10.599
34641SOL    HW2 5931   8.528   7.132  10.475
34642SOL     OW 5932   5.059   7.964   8.145
34642SOL    HW1 5933   5.053   7.920   8.230
34642SOL    HW2 5934   5.042   7.894   8.081
34643SOL     OW 5935   6.497   5.191   3.924
34643SOL    HW1 5936   6.579   5.235   3.903
34643SOL    HW2 5937   6.512   5.151   4.009
34644SOL     OW 5938   6.538   7.598   7.369
34644SOL    HW1 5939   6.571   7.551   7.445
34644SOL    HW2 5940   6.498   7.677   7.404
34645SOL     OW 5941   4.128   3.045   4.432
34645SOL    HW1 5942   4.158   3.121   4.382
34645SOL    HW2 5943   4.043   3.071   4.467
34646SOL     OW 5944  10.595   1.897   8.048
34646SOL    HW1 5945  10.650   1.818   8.044
34646SOL    HW2 5946  10.646   1.964   8.002
34647SOL     OW 5947   1.127   7.591   1.518
34647SOL    HW1 5948   1.138   7.523   1.451
34647SOL    HW2 5949   1.081   7.547   1.589
34648SOL     OW 5950  10.838   8.211   5.958
34648SOL    HW1 5951  10.789   8.289   5.932
34648SOL    HW2 5952  10.922   8.219   5.913
34649SOL     OW 5953   0.335   8.785   5.590
34649SOL    HW1 5954   0.381   8.735   5.523
34649SOL    HW2 5955   0.395   8.855   5.614
34650SOL     OW 5956   7.217   9.147   1.402
34650SOL    HW1 5957   7.208   9.242   1.408
34650SOL    HW2 5958   7.129   9.115   1.383
34651SOL     OW 5959   6.887   0.884   6.703
34651SOL    HW1 5960   6.980   0.873   6.683
34651SOL    HW2 5961   6.885   0.903   6.796
34652SOL     OW 5962   3.779   9.734   3.215
34652SOL    HW1 5963   3.751   9.725   3.306
34652SOL    HW2 5964   3.725   9.804   3.179
34653SOL     OW 5965   5.954   9.017   9.253
34653SOL    HW1 5966   6.032   8.962   9.245
34653SOL    HW2 5967   5.881   8.955   9.253
34654SOL     OW 5968   9.929   2.957   5.809
34654SOL    HW1 5969   9.961   2.945   5.719
34654SOL    HW2 5970  10.001   2.925   5.864
34655SOL     OW 5971   1.553  10.866   8.693
34655SOL    HW1 5972   1.631  10.811   8.686
34655SOL    HW2 5973   1.561  10.927   8.619
34656SOL     OW 5974   1.367   1.247   1.584
34656SOL    HW1 5975   1.358   1.256   1.489
34656SOL    HW2 5976   1.280   1.222   1.614
34657SOL     OW 5977   9.531   7.072  10.805
34657SOL    HW1 5978   9.602   7.125  10.768
34657SOL    HW2 5979   9.567   6.983  10.810
34658SOL     OW 5980   8.334   5.949   2.999
34658SOL    HW1 5981   8.429   5.942   3.006
34658SOL    HW2 5982   8.300   5.885   3.062
34659SOL     OW 5983   1.744   9.413   2.092
34659SOL    HW1 5984   1.667   9.357   2.086
34659SOL    HW2 5985   1.750   9.455   2.006
34660SOL     OW 5986   2.230   2.058   4.034
34660SOL    HW1 5987   2.273   2.051   4.119
34660SOL    HW2 5988   2.148   2.010   4.045
34661SOL     OW 5989   3.616   0.475  11.000
34661SOL    HW1 5990   3.570   0.557  10.985
34661SOL    HW2 5991   3.559   0.426  11.059
34662SOL     OW 5992   0.994   7.657   1.219
34662SOL    HW1 5993   0.916   7.710   1.203
34662SOL    HW2 5994   1.064   7.701   1.171
34663SOL     OW 5995   9.929  10.636   8.744
34663SOL    HW1 5996   9.951  10.565   8.804
34663SOL    HW2 5997  10.014  10.673   8.719
34664SOL     OW 5998   9.585   7.724   6.031
34664SOL    HW1 5999   9.673   7.716   6.067
34664SOL    HW2 6000   9.558   7.634   6.013
34665SOL     OW 6001   2.454   7.774   6.668
34665SOL    HW1 6002   2.505   7.785   6.588
34665SOL    HW2 6003   2.460   7.680   6.686
34666SOL     OW 6004   0.205   8.197   9.396
34666SOL    HW1 6005   0.271   8.264   9.379
34666SOL    HW2 6006   0.255   8.116   9.410
34667SOL     OW 6007   0.099   8.939   3.300
34667SOL    HW1 6008   0.130   8.862   3.348
34667SOL    HW2 6009   0.056   8.903   3.222
34668SOL     OW 6010   0.415   0.622   8.424
34668SOL    HW1 6011   0.431   0.643   8.516
34668SOL    HW2 6012   0.333   0.572   8.425
34669SOL     OW 6013   0.244   6.542   6.260
34669SOL    HW1 6014   0.158   6.499   6.264
34669SOL    HW2 6015   0.299   6.491   6.319
34670SOL     OW 6016   4.572   3.727   8.765
34670SOL    HW1 6017   4.589   3.673   8.687
34670SOL    HW2 6018   4.601   3.815   8.741
34671SOL     OW 6019  11.013   2.413   7.317
34671SOL    HW1 6020  10.963   2.453   7.246
34671SOL    HW2 6021  11.095   2.463   7.320
34672SOL     OW 6022   7.637  10.845   2.496
34672SOL    HW1 6023   7.725  10.845   2.534
34672SOL    HW2 6024   7.607  10.755   2.505
34673SOL     OW 6025   4.770   6.840   4.615
34673SOL    HW1 6026   4.719   6.766   4.582
34673SOL    HW2 6027   4.851   6.800   4.647
34674SOL     OW 6028   9.016  10.291   4.879
34674SOL    HW1 6029   9.057  10.241   4.949
34674SOL    HW2 6030   8.945  10.235   4.848
34675SOL     OW 6031   7.397  10.909   2.199
34675SOL    HW1 6032   7.474  10.961   2.224
34675SOL    HW2 6033   7.433  10.835   2.150
34676SOL     OW 6034   2.718   4.274   1.639
34676SOL    HW1 6035   2.658   4.255   1.711
34676SOL    HW2 6036   2.676   4.236   1.562
34677SOL     OW 6037  10.656   1.838   6.717
34677SOL    HW1 6038  10.572   1.810   6.754
34677SOL    HW2 6039  10.670   1.926   6.752
34678SOL     OW 6040   5.699  10.336   4.474
34678SOL    HW1 6041   5.736  10.253   4.443
34678SOL    HW2 6042   5.688  10.324   4.568
34679SOL     OW 6043   1.791   2.790   5.848
34679SOL    HW1 6044   1.798   2.699   5.816
34679SOL    HW2 6045   1.752   2.782   5.935
34680SOL     OW 6046   5.804   7.253   5.092
34680SOL    HW1 6047   5.743   7.321   5.065
34680SOL    HW2 6048   5.749   7.186   5.133
34681SOL     OW 6049   6.369   6.132   3.884
34681SOL    HW1 6050   6.279   6.142   3.913
34681SOL    HW2 6051   6.418   6.199   3.932
34682SOL     OW 6052   8.964   9.374   2.776
34682SOL    HW1 6053   9.022   9.442   2.810
34682SOL    HW2 6054   9.024   9.311   2.735
34683SOL     OW 6055   5.317   2.220   3.424
34683SOL    HW1 6056   5.256   2.235   3.352
34683SOL    HW2 6057   5.305   2.128   3.447
34684SOL     OW 6058   8.921   6.421   7.120
34684SOL    HW1 6059   9.016   6.413   7.133
34684SOL    HW2 6060   8.899   6.349   7.061
34685SOL     OW 6061   9.955   9.449   7.804
34685SOL    HW1 6062  10.012   9.440   7.727
34685SOL    HW2 6063  10.013   9.481   7.873
34686SOL     OW 6064   7.799   5.771   9.939
34686SOL    HW1 6065   7.753   5.839   9.987
34686SOL    HW2 6066   7.834   5.815   9.862
34687SOL     OW 6067   8.904   4.354   6.915
34687SOL    HW1 6068   8.989   4.334   6.876
34687SOL    HW2 6069   8.898   4.296   6.991
34688SOL     OW 6070   1.142   4.744   0.058
34688SOL    HW1 6071   1.116   4.758  -0.033
34688SOL    HW2 6072   1.088   4.805   0.108
34689SOL     OW 6073  10.415  10.402   7.538
34689SOL    HW1 6074  10.482  10.355   7.588
34689SOL    HW2 6075  10.462  10.436   7.462
34690SOL     OW 6076   9.794   7.139  10.457
34690SOL    HW1 6077   9.784   7.165  10.548
34690SOL    HW2 6078   9.819   7.046  10.461
34691SOL     OW 6079   6.489   6.083  10.586
34691SOL    HW1 6080   6.479   6.177  10.597
34691SOL    HW2 6081   6.584   6.069  10.585
34692SOL     OW 6082   1.162   2.761   5.422
34692SOL    HW1 6083   1.069   2.748   5.405
34692SOL    HW2 6084   1.166   2.803   5.508
34693SOL     OW 6085  10.797   7.202   8.673
34693SOL    HW1 6086  10.753   7.283   8.698
34693SOL    HW2 6087  10.826   7.163   8.755
34694SOL     OW 6088   9.191   6.078   8.418
34694SOL    HW1 6089   9.151   6.143   8.475
34694SOL    HW2 6090   9.269   6.049   8.465
34695SOL     OW 6091   5.440   4.849   9.126
34695SOL    HW1 6092   5.379   4.836   9.053
34695SOL    HW2 6093   5.496   4.922   9.098
34696SOL     OW 6094   3.057   4.156  10.111
34696SOL    HW1 6095   3.063   4.090  10.041
34696SOL    HW2 6096   3.141   4.202  10.107
34697SOL     OW 6097  11.066   2.323   5.744
34697SOL    HW1 6098  11.037   2.232   5.753
34697SOL    HW2 6099  10.987   2.371   5.721
34698SOL     OW 6100   1.733   9.255   1.585
34698SOL    HW1 6101   1.778   9.304   1.516
34698SOL    HW2 6102   1.697   9.322   1.643
34699SOL     OW 6103   0.349   4.015   1.968
34699SOL    HW1 6104   0.264   4.007   2.011
34699SOL    HW2 6105   0.351   3.943   1.905
34700SOL     OW 6106   7.353  10.234   4.341
34700SOL    HW1 6107   7.263  10.266   4.334
34700SOL    HW2 6108   7.372  10.197   4.254
34701SOL     OW 6109   6.643   7.820  10.300
34701SOL    HW1 6110   6.658   7.742  10.354
34701SOL    HW2 6111   6.584   7.790  10.231
34702SOL     OW 6112   9.474   8.912   7.027
34702SOL    HW1 6113   9.463   8.871   6.941
34702SOL    HW2 6114   9.390   8.954   7.044
34703SOL     OW 6115  10.159   7.462   5.759
34703SOL    HW1 6116  10.106   7.497   5.831
34703SOL    HW2 6117  10.248   7.493   5.777
34704SOL     OW 6118   7.581   3.502   3.186
34704SOL    HW1 6119   7.635   3.495   3.107
34704SOL    HW2 6120   7.617   3.577   3.233
34705SOL     OW 6121   1.664   2.719   0.863
34705SOL    HW1 6122   1.663   2.746   0.771
34705SOL    HW2 6123   1.741   2.662   0.870
34706SOL     OW 6124   0.851   2.946   4.127
34706SOL    HW1 6125   0.815   2.896   4.200
34706SOL    HW2 6126   0.822   2.899   4.049
34707SOL     OW 6127   7.968   4.224   1.846
34707SOL    HW1 6128   7.951   4.156   1.781
34707SOL    HW2 6129   7.896   4.216   1.908
34708SOL     OW 6130   9.627   6.103   6.987
34708SOL    HW1 6131   9.698   6.039   6.995
34708SOL    HW2 6132   9.565   6.079   7.056
34709SOL     OW 6133   7.283   8.388   5.774
34709SOL    HW1 6134   7.240   8.436   5.845
34709SOL    HW2 6135   7.366   8.434   5.760
34710SOL     OW 6136   6.829   4.370   7.991
34710SOL    HW1 6137   6.875   4.379   8.074
34710SOL    HW2 6138   6.885   4.312   7.939
34711SOL     OW 6139  10.586   8.937   7.424
34711SOL    HW1 6140  10.511   8.992   7.444
34711SOL    HW2 6141  10.590   8.935   7.328
34712SOL     OW 6142   4.434   3.452   3.405
34712SOL    HW1 6143   4.483   3.457   3.487
34712SOL    HW2 6144   4.419   3.358   3.392
34713SOL     OW 6145   8.938   9.088   4.209
34713SOL    HW1 6146   9.005   9.138   4.163
34713SOL    HW2 6147   8.879   9.153   4.245
34714SOL     OW 6148   4.258   3.563   5.818
34714SOL    HW1 6149   4.194   3.629   5.791
34714SOL    HW2 6150   4.205   3.490   5.850
34715SOL     OW 6151   2.004   9.064   7.207
34715SOL    HW1 6152   2.069   9.129   7.232
34715SOL    HW2 6153   2.053   8.981   7.206
34716SOL     OW 6154   6.631   6.581   5.171
34716SOL    HW1 6155   6.613   6.643   5.241
34716SOL    HW2 6156   6.571   6.508   5.187
34717SOL     OW 6157   0.248   2.272   5.727
34717SOL    HW1 6158   0.159   2.306   5.737
34717SOL    HW2 6159   0.288   2.329   5.661
34718SOL     OW 6160   4.772   0.081   4.159
34718SOL    HW1 6161   4.801   0.109   4.246
34718SOL    HW2 6162   4.713   0.150   4.130
34719SOL     OW 6163   4.441   8.281   9.331
34719SOL    HW1 6164   4.476   8.305   9.245
34719SOL    HW2 6165   4.362   8.334   9.340
34720SOL     OW 6166   5.172   0.025   1.343
34720SOL    HW1 6167   5.170   0.097   1.280
34720SOL    HW2 6168   5.174  -0.054   1.289
34721SOL     OW 6169   1.645   5.141   7.361
34721SOL    HW1 6170   1.654   5.203   7.289
34721SOL    HW2 6171   1.731   5.098   7.365
34722SOL     OW 6172   1.668   7.881   7.490
34722SOL    HW1 6173   1.629   7.819   7.551
34722SOL    HW2 6174   1.763   7.871   7.502
34723SOL     OW 6175   0.337   3.481   8.246
34723SOL    HW1 6176   0.353   3.515   8.158
34723SOL    HW2 6177   0.280   3.546   8.287
34724SOL     OW 6178   1.921   7.363   6.253
34724SOL    HW1 6179   1.861   7.416   6.201
34724SOL    HW2 6180   2.005   7.409   6.247
34725SOL     OW 6181   9.947   4.877   9.493
34725SOL    HW1 6182   9.944   4.947   9.428
34725SOL    HW2 6183   9.863   4.832   9.484
34726SOL     OW 6184   8.492   9.419   3.939
34726SOL    HW1 6185   8.524   9.336   3.902
34726SOL    HW2 6186   8.494   9.480   3.865
34727SOL     OW 6187   7.387   6.833   8.180
34727SOL    HW1 6188   7.423   6.858   8.265
34727SOL    HW2 6189   7.449   6.767   8.147
34728SOL     OW 6190   4.494   0.378   8.387
34728SOL    HW1 6191   4.489   0.352   8.479
34728SOL    HW2 6192   4.488   0.295   8.339
34729SOL     OW 6193   7.912   9.684   4.140
34729SOL    HW1 6194   7.844   9.750   4.150
34729SOL    HW2 6195   7.866   9.600   4.150
34730SOL     OW 6196   6.905   7.301   9.490
34730SOL    HW1 6197   6.914   7.327   9.398
34730SOL    HW2 6198   6.898   7.205   9.486
34731SOL     OW 6199   9.331   6.442   5.076
34731SOL    HW1 6200   9.310   6.349   5.065
34731SOL    HW2 6201   9.417   6.452   5.034
34732SOL     OW 6202   4.228   0.231   7.613
34732SOL    HW1 6203   4.232   0.204   7.521
34732SOL    HW2 6204   4.210   0.325   7.610
34733SOL     OW 6205   0.449   3.009   3.124
34733SOL    HW1 6206   0.454   3.021   3.218
34733SOL    HW2 6207   0.388   3.076   3.094
34734SOL     OW 6208   7.737  10.933   5.139
34734SOL    HW1 6209   7.774  10.860   5.089
34734SOL    HW2 6210   7.811  10.969   5.187
34735SOL     OW 6211   0.668   8.174   8.726
34735SOL    HW1 6212   0.735   8.240   8.743
34735SOL    HW2 6213   0.588   8.224   8.714
34736SOL     OW 6214   8.622   3.922   3.140
34736SOL    HW1 6215   8.666   3.969   3.210
34736SOL    HW2 6216   8.562   3.986   3.102
34737SOL     OW 6217   3.097   5.693   8.131
34737SOL    HW1 6218   3.002   5.688   8.129
34737SOL    HW2 6219   3.123   5.687   8.039
34738SOL     OW 6220   6.787   6.728   4.408
34738SOL    HW1 6221   6.728   6.784   4.457
34738SOL    HW2 6222   6.845   6.788   4.362
34739SOL     OW 6223   5.611   7.977   9.996
34739SOL    HW1 6224   5.650   7.922   9.927
34739SOL    HW2 6225   5.550   8.034   9.949
34740SOL     OW 6226   5.498   4.301   8.482
34740SOL    HW1 6227   5.491   4.233   8.549
34740SOL    HW2 6228   5.489   4.383   8.530
34741SOL     OW 6229   7.320   7.790   9.226
34741SOL    HW1 6230   7.398   7.789   9.281
34741SOL    HW2 6231   7.318   7.702   9.187
34742SOL     OW 6232   5.092   8.644   5.720
34742SOL    HW1 6233   5.068   8.562   5.676
34742SOL    HW2 6234   5.161   8.618   5.781
34743SOL     OW 6235   3.837   9.059   7.979
34743SOL    HW1 6236   3.814   9.054   7.886
34743SOL    HW2 6237   3.827   8.969   8.011
34744SOL     OW 6238   7.005   5.598   9.494
34744SOL    HW1 6239   6.962   5.632   9.572
34744SOL    HW2 6240   6.978   5.506   9.490
34745SOL     OW 6241   3.475   9.470   4.691
34745SOL    HW1 6242   3.488   9.454   4.597
34745SOL    HW2 6243   3.552   9.520   4.718
34746SOL     OW 6244   6.106   8.413   7.237
34746SOL    HW1 6245   6.074   8.385   7.151
34746SOL    HW2 6246   6.067   8.499   7.250
34747SOL     OW 6247   7.867   6.587   5.052
34747SOL    HW1 6248   7.913   6.622   4.976
34747SOL    HW2 6249   7.775   6.590   5.027
34748SOL     OW 6250   5.044   7.771   5.923
34748SOL    HW1 6251   4.955   7.804   5.930
34748SOL    HW2 6252   5.036   7.677   5.940
34749SOL     OW 6253   9.652   3.920   2.491
34749SOL    HW1 6254   9.711   3.946   2.419
34749SOL    HW2 6255   9.588   3.991   2.496
34750SOL     OW 6256   2.775   5.920   9.578
34750SOL    HW1 6257   2.695   5.955   9.539
34750SOL    HW2 6258   2.841   5.988   9.564
34751SOL     OW 6259  10.925   5.836   9.650
34751SOL    HW1 6260  10.906   5.779   9.575
34751SOL    HW2 6261  10.995   5.894   9.618
34752SOL     OW 6262   2.106  10.116   3.617
34752SOL    HW1 6263   2.023  10.163   3.623
34752SOL    HW2 6264   2.171  10.175   3.656
34753SOL     OW 6265   3.122   3.579   7.019
34753SOL    HW1 6266   3.074   3.632   6.955
34753SOL    HW2 6267   3.094   3.612   7.104
34754SOL     OW 6268  10.759   0.733   6.030
34754SOL    HW1 6269  10.778   0.823   6.005
34754SOL    HW2 6270  10.671   0.717   5.996
34755SOL     OW 6271   7.924  10.491   5.891
34755SOL    HW1 6272   7.954  10.476   5.980
34755SOL    HW2 6273   7.997  10.536   5.848
34756SOL     OW 6274  10.233   7.638   7.419
34756SOL    HW1 6275  10.281   7.721   7.420
34756SOL    HW2 6276  10.157   7.654   7.363
34757SOL     OW 6277   0.400   0.366   5.798
34757SOL    HW1 6278   0.372   0.305   5.729
34757SOL    HW2 6279   0.447   0.311   5.861
34758SOL     OW 6280   6.253   9.610   9.018
34758SOL    HW1 6281   6.215   9.643   8.936
34758SOL    HW2 6282   6.178   9.578   9.068
34759SOL     OW 6283   7.796   2.496   8.286
34759SOL    HW1 6284   7.802   2.482   8.191
34759SOL    HW2 6285   7.763   2.585   8.295
34760SOL     OW 6286   0.986   7.370  10.470
34760SOL    HW1 6287   1.023   7.361  10.557
34760SOL    HW2 6288   1.037   7.440  10.429
34761SOL     OW 6289   5.665  10.074   0.614
34761SOL    HW1 6290   5.735  10.077   0.679
34761SOL    HW2 6291   5.670  10.158   0.569
34762SOL     OW 6292   0.081   5.899   5.090
34762SOL    HW1 6293   0.104   5.952   5.166
34762SOL    HW2 6294   0.113   5.949   5.015
34763SOL     OW 6295   9.640   7.377   8.362
34763SOL    HW1 6296   9.586   7.302   8.387
34763SOL    HW2 6297   9.729   7.349   8.382
34764SOL     OW 6298   7.901   6.619   6.701
34764SOL    HW1 6299   7.960   6.612   6.626
34764SOL    HW2 6300   7.816   6.642   6.662
34765SOL     OW 6301   7.557  10.691   9.759
34765SOL    HW1 6302   7.562  10.681   9.664
34765SOL    HW2 6303   7.464  10.683   9.779
34766SOL     OW 6304   5.893   6.070   7.582
34766SOL    HW1 6305   5.875   6.054   7.674
34766SOL    HW2 6306   5.808   6.088   7.543
34767SOL     OW 6307   4.675   6.880   9.526
34767SOL    HW1 6308   4.607   6.857   9.463
34767SOL    HW2 6309   4.641   6.956   9.572
34768SOL     OW 6310   1.173   9.835   4.799
34768SOL    HW1 6311   1.094   9.887   4.815
34768SOL    HW2 6312   1.227   9.889   4.741
34769SOL     OW 6313   7.728   9.697   0.162
34769SOL    HW1 6314   7.701   9.611   0.130
34769SOL    HW2 6315   7.782   9.678   0.239
34770SOL     OW 6316   3.995   3.982   0.329
34770SOL    HW1 6317   4.020   4.073   0.342
34770SOL    HW2 6318   3.908   3.986   0.290
34771SOL     OW 6319   7.127   2.021   2.125
34771SOL    HW1 6320   7.168   1.967   2.192
34771SOL    HW2 6321   7.040   1.983   2.114
34772SOL     OW 6322   5.545   8.774   0.573
34772SOL    HW1 6323   5.527   8.814   0.658
34772SOL    HW2 6324   5.619   8.823   0.538
34773SOL     OW 6325   5.317   9.326   6.191
34773SOL    HW1 6326   5.292   9.322   6.283
34773SOL    HW2 6327   5.361   9.410   6.182
34774SOL     OW 6328  10.249   8.293   9.899
34774SOL    HW1 6329  10.311   8.236   9.944
34774SOL    HW2 6330  10.192   8.233   9.851
34775SOL     OW 6331   3.696   5.797   3.935
34775SOL    HW1 6332   3.777   5.840   3.962
34775SOL    HW2 6333   3.701   5.796   3.839
34776SOL     OW 6334   5.446   2.916   9.957
34776SOL    HW1 6335   5.417   2.903   9.866
34776SOL    HW2 6336   5.464   3.009   9.963
34777SOL     OW 6337   5.225   6.261  10.357
34777SOL    HW1 6338   5.288   6.226  10.293
34777SOL    HW2 6339   5.265   6.243  10.442
34778SOL     OW 6340   7.082   6.238   6.062
34778SOL    HW1 6341   7.052   6.147   6.056
34778SOL    HW2 6342   7.071   6.272   5.973
34779SOL     OW 6343   5.879  10.743   7.172
34779SOL    HW1 6344   5.831  10.816   7.133
34779SOL    HW2 6345   5.939  10.715   7.103
34780SOL     OW 6346  10.868   7.494   8.103
34780SOL    HW1 6347  10.922   7.546   8.043
34780SOL    HW2 6348  10.798   7.458   8.047
34781SOL     OW 6349  10.434  10.994  10.884
34781SOL    HW1 6350  10.503  10.934  10.855
34781SOL    HW2 6351  10.473  11.081  10.876
34782SOL     OW 6352   5.641   2.094   5.109
34782SOL    HW1 6353   5.578   2.024   5.089
34782SOL    HW2 6354   5.613   2.129   5.193
34783SOL     OW 6355   1.674  10.009   2.301
34783SOL    HW1 6356   1.766   9.982   2.298
34783SOL    HW2 6357   1.633   9.947   2.361
34784SOL     OW 6358  10.661   8.719   4.044
34784SOL    HW1 6359  10.699   8.721   3.956
34784SOL    HW2 6360  10.736   8.710   4.102
34785SOL     OW 6361   0.084   8.599   6.735
34785SOL    HW1 6362   0.053   8.683   6.702
34785SOL    HW2 6363   0.139   8.621   6.810
34786SOL     OW 6364   6.649   1.462   8.995
34786SOL    HW1 6365   6.660   1.372   8.964
34786SOL    HW2 6366   6.642   1.514   8.915
34787SOL     OW 6367   9.037   3.112   8.579
34787SOL    HW1 6368   8.991   3.111   8.495
34787SOL    HW2 6369   8.971   3.138   8.643
34788SOL     OW 6370   8.151   2.795   0.541
34788SOL    HW1 6371   8.077   2.810   0.482
34788SOL    HW2 6372   8.124   2.720   0.594
34789SOL     OW 6373   5.928   7.949   8.721
34789SOL    HW1 6374   5.941   7.902   8.638
34789SOL    HW2 6375   6.013   7.945   8.765
34790SOL     OW 6376   4.123   2.924   8.337
34790SOL    HW1 6377   4.171   3.004   8.359
34790SOL    HW2 6378   4.146   2.906   8.245
34791SOL     OW 6379   3.472   6.885   4.538
34791SOL    HW1 6380   3.431   6.887   4.624
34791SOL    HW2 6381   3.553   6.935   4.548
34792SOL     OW 6382   8.939   5.251   4.137
34792SOL    HW1 6383   8.844   5.258   4.142
34792SOL    HW2 6384   8.956   5.157   4.132
34793SOL     OW 6385  10.940  10.274   6.491
34793SOL    HW1 6386  10.951  10.366   6.513
34793SOL    HW2 6387  10.981  10.265   6.405
34794SOL     OW 6388   7.771   8.297   6.026
34794SOL    HW1 6389   7.850   8.304   5.971
34794SOL    HW2 6390   7.728   8.217   5.995
34795SOL     OW 6391   0.087   6.449   5.080
34795SOL    HW1 6392   0.177   6.479   5.066
34795SOL    HW2 6393   0.042   6.469   4.997
34796SOL     OW 6394   3.058  10.864   3.922
34796SOL    HW1 6395   2.978  10.913   3.942
34796SOL    HW2 6396   3.042  10.777   3.958
34797SOL     OW 6397   8.404   6.086   5.282
34797SOL    HW1 6398   8.394   6.057   5.372
34797SOL    HW2 6399   8.362   6.172   5.279
34798SOL     OW 6400   0.062   8.275   4.648
34798SOL    HW1 6401   0.061   8.307   4.558
34798SOL    HW2 6402  -0.030   8.274   4.674
34799SOL     OW 6403   0.336   8.961  10.365
34799SOL    HW1 6404   0.241   8.948  10.362
34799SOL    HW2 6405   0.357   9.003  10.281
34800SOL     OW 6406   8.481   7.882   0.789
34800SOL    HW1 6407   8.441   7.955   0.836
34800SOL    HW2 6408   8.412   7.850   0.731
34801SOL     OW 6409   6.660   2.983   1.134
34801SOL    HW1 6410   6.708   2.993   1.051
34801SOL    HW2 6411   6.594   3.051   1.132
34802SOL     OW 6412   3.170   5.170   6.095
34802SOL    HW1 6413   3.122   5.190   6.175
34802SOL    HW2 6414   3.252   5.218   6.103
34803SOL     OW 6415  10.400  10.354   8.057
34803SOL    HW1 6416  10.454  10.277   8.038
34803SOL    HW2 6417  10.324  10.344   8.000
34804SOL     OW 6418   9.201   7.698   1.751
34804SOL    HW1 6419   9.289   7.725   1.779
34804SOL    HW2 6420   9.164   7.654   1.827
34805SOL     OW 6421   1.819  10.649   7.877
34805SOL    HW1 6422   1.768  10.706   7.935
34805SOL    HW2 6423   1.807  10.561   7.912
34806SOL     OW 6424   4.208   8.128   7.307
34806SOL    HW1 6425   4.114   8.114   7.299
34806SOL    HW2 6426   4.238   8.055   7.362
34807SOL     OW 6427   9.105   7.659   7.638
34807SOL    HW1 6428   9.170   7.590   7.625
34807SOL    HW2 6429   9.024   7.612   7.658
34808SOL     OW 6430   0.568   2.536   1.853
34808SOL    HW1 6431   0.503   2.530   1.783
34808SOL    HW2 6432   0.608   2.449   1.855
34809SOL     OW 6433   9.205   8.418   7.045
34809SOL    HW1 6434   9.259   8.398   6.968
34809SOL    HW2 6435   9.262   8.471   7.101
34810SOL     OW 6436   9.171   7.638  10.345
34810SOL    HW1 6437   9.121   7.718  10.360
34810SOL    HW2 6438   9.260   7.668  10.326
34811SOL     OW 6439   7.079   5.868   8.103
34811SOL    HW1 6440   7.070   5.959   8.075
34811SOL    HW2 6441   6.989   5.837   8.112
34812SOL     OW 6442  10.289   7.939  10.734
34812SOL    HW1 6443  10.218   7.906  10.678
34812SOL    HW2 6444  10.245   7.995  10.798
34813SOL     OW 6445   8.729   6.838   6.333
34813SOL    HW1 6446   8.810   6.834   6.282
34813SOL    HW2 6447   8.699   6.928   6.324
34814SOL     OW 6448   2.478   6.141   5.918
34814SOL    HW1 6449   2.554   6.094   5.952
34814SOL    HW2 6450   2.403   6.101   5.963
34815SOL     OW 6451   8.884   8.018   7.564
34815SOL    HW1 6452   8.872   8.108   7.593
34815SOL    HW2 6453   8.802   7.995   7.521
34816SOL     OW 6454   5.500   8.788   9.595
34816SOL    HW1 6455   5.524   8.873   9.558
34816SOL    HW2 6456   5.510   8.799   9.689
34817SOL     OW 6457   8.355   6.094   9.588
34817SOL    HW1 6458   8.303   6.056   9.517
34817SOL    HW2 6459   8.370   6.021   9.648
34818SOL     OW 6460   5.977   7.487   1.159
34818SOL    HW1 6461   5.891   7.511   1.193
34818SOL    HW2 6462   5.997   7.554   1.093
34819SOL     OW 6463   0.061   2.029   1.436
34819SOL    HW1 6464   0.093   2.055   1.522
34819SOL    HW2 6465   0.107   2.086   1.375
34820SOL     OW 6466   8.280   0.972   2.533
34820SOL    HW1 6467   8.232   0.988   2.614
34820SOL    HW2 6468   8.364   0.935   2.561
34821SOL     OW 6469   5.655   9.540   4.310
34821SOL    HW1 6470   5.567   9.502   4.306
34821SOL    HW2 6471   5.707   9.475   4.357
34822SOL     OW 6472   0.725   3.277  11.000
34822SOL    HW1 6473   0.720   3.347  11.064
34822SOL    HW2 6474   0.806   3.294  10.952
34823SOL     OW 6475   2.660  11.068   2.168
34823SOL    HW1 6476   2.607  11.050   2.090
34823SOL    HW2 6477   2.676  11.162   2.164
34824SOL     OW 6478   6.387  10.900   8.042
34824SOL    HW1 6479   6.378  10.807   8.064
34824SOL    HW2 6480   6.368  10.946   8.124
34825SOL     OW 6481  10.210   8.199   9.314
34825SOL    HW1 6482  10.289   8.242   9.346
34825SOL    HW2 6483  10.141   8.263   9.326
34826SOL     OW 6484  10.761   9.870   3.970
34826SOL    HW1 6485  10.724   9.791   4.010
34826SOL    HW2 6486  10.748   9.857   3.876
34827SOL     OW 6487   8.879   9.187  11.006
34827SOL    HW1 6488   8.839   9.236  10.934
34827SOL    HW2 6489   8.821   9.111  11.018
34828SOL     OW 6490   5.339  10.865   5.593
34828SOL    HW1 6491   5.427  10.893   5.617
34828SOL    HW2 6492   5.319  10.793   5.652
34829SOL     OW 6493   8.187  10.614   0.144
34829SOL    HW1 6494   8.224  10.696   0.177
34829SOL    HW2 6495   8.216  10.547   0.207
34830SOL     OW 6496   6.517   8.148   5.493
34830SOL    HW1 6497   6.426   8.144   5.521
34830SOL    HW2 6498   6.567   8.160   5.573
34831SOL     OW 6499  10.020   3.771   7.524
34831SOL    HW1 6500  10.104   3.730   7.503
34831SOL    HW2 6501  10.040   3.831   7.596
34832SOL     OW 6502   9.291   6.492   1.057
34832SOL    HW1 6503   9.386   6.503   1.063
34832SOL    HW2 6504   9.279   6.412   1.006
34833SOL     OW 6505   2.968   5.584   7.672
34833SOL    HW1 6506   2.931   5.625   7.593
34833SOL    HW2 6507   3.000   5.499   7.641
34834SOL     OW 6508  10.459   7.998   3.342
34834SOL    HW1 6509  10.453   7.912   3.299
34834SOL    HW2 6510  10.500   7.979   3.426
34835SOL     OW 6511   6.723   6.321  10.843
34835SOL    HW1 6512   6.687   6.362  10.921
34835SOL    HW2 6513   6.709   6.227  10.856
34836SOL     OW 6514   6.314   7.937  10.298
34836SOL    HW1 6515   6.296   8.031  10.303
34836SOL    HW2 6516   6.311   7.907  10.389
34837SOL     OW 6517   8.545   9.361   8.221
34837SOL    HW1 6518   8.540   9.285   8.162
34837SOL    HW2 6519   8.535   9.436   8.163
34838SOL     OW 6520   1.828   0.643   7.194
34838SOL    HW1 6521   1.901   0.659   7.133
34838SOL    HW2 6522   1.750   0.652   7.140
34839SOL     OW 6523   6.785  10.052   8.404
34839SOL    HW1 6524   6.875  10.020   8.390
34839SOL    HW2 6525   6.754  10.003   8.480
34840SOL     OW 6526   1.991   6.788   6.259
34840SOL    HW1 6527   2.032   6.874   6.252
34840SOL    HW2 6528   1.903   6.800   6.224
34841SOL     OW 6529   8.793  10.507   9.158
34841SOL    HW1 6530   8.829  10.445   9.221
34841SOL    HW2 6531   8.700  10.514   9.181
34842SOL     OW 6532   7.800   3.042  10.084
34842SOL    HW1 6533   7.741   3.115  10.103
34842SOL    HW2 6534   7.758   2.995  10.012
34843SOL     OW 6535   9.854   8.813  10.785
34843SOL    HW1 6536   9.906   8.759  10.844
34843SOL    HW2 6537   9.813   8.878  10.841
34844SOL     OW 6538   9.172   0.183   6.989
34844SOL    HW1 6539   9.124   0.206   7.068
34844SOL    HW2 6540   9.237   0.119   7.018
34845SOL     OW 6541   7.321   1.051   5.545
34845SOL    HW1 6542   7.348   0.974   5.595
34845SOL    HW2 6543   7.333   1.025   5.453
34846SOL     OW 6544   7.868   3.701   1.758
34846SOL    HW1 6545   7.909   3.777   1.799
34846SOL    HW2 6546   7.792   3.736   1.711
34847SOL     OW 6547   1.714   6.728   5.527
34847SOL    HW1 6548   1.739   6.802   5.581
34847SOL    HW2 6549   1.627   6.750   5.495
34848SOL     OW 6550   5.934   4.776   2.669
34848SOL    HW1 6551   5.892   4.693   2.645
34848SOL    HW2 6552   5.863   4.830   2.703
34849SOL     OW 6553   6.122   7.920   7.177
34849SOL    HW1 6554   6.096   7.828   7.181
34849SOL    HW2 6555   6.051   7.962   7.129
34850SOL     OW 6556   6.248   3.247   7.962
34850SOL    HW1 6557   6.181   3.273   7.899
34850SOL    HW2 6558   6.330   3.278   7.924
34851SOL     OW 6559   7.077   5.360   0.189
34851SOL    HW1 6560   6.994   5.360   0.142
34851SOL    HW2 6561   7.135   5.415   0.136
34852SOL     OW 6562   6.676   7.714   1.094
34852SOL    HW1 6563   6.648   7.751   1.177
34852SOL    HW2 6564   6.760   7.756   1.076
34853SOL     OW 6565   0.097   6.759   6.749
34853SOL    HW1 6566   0.060   6.846   6.760
34853SOL    HW2 6567   0.021   6.703   6.729
34854SOL     OW 6568   7.874   1.922  10.640
34854SOL    HW1 6569   7.801   1.885  10.590
34854SOL    HW2 6570   7.916   1.983  10.579
34855SOL     OW 6571   1.581   9.214   6.258
34855SOL    HW1 6572   1.631   9.139   6.292
34855SOL    HW2 6573   1.585   9.279   6.327
34856SOL     OW 6574   9.242   5.680   1.624
34856SOL    HW1 6575   9.201   5.595   1.607
34856SOL    HW2 6576   9.209   5.737   1.554
34857SOL     OW 6577   0.921   2.776   1.545
34857SOL    HW1 6578   0.939   2.782   1.639
34857SOL    HW2 6579   0.833   2.740   1.539
34858SOL     OW 6580   7.187   6.873   7.285
34858SOL    HW1 6581   7.282   6.863   7.291
34858SOL    HW2 6582   7.163   6.827   7.204
34859SOL     OW 6583   7.323   2.522   7.150
34859SOL    HW1 6584   7.378   2.594   7.180
34859SOL    HW2 6585   7.322   2.531   7.054
34860SOL     OW 6586   4.133   7.680  10.225
34860SOL    HW1 6587   4.144   7.772  10.201
34860SOL    HW2 6588   4.220   7.641  10.211
34861SOL     OW 6589   5.858   7.258   8.545
34861SOL    HW1 6590   5.787   7.278   8.484
34861SOL    HW2 6591   5.891   7.343   8.573
34862SOL     OW 6592   6.495   5.801   7.145
34862SOL    HW1 6593   6.445   5.748   7.083
34862SOL    HW2 6594   6.542   5.864   7.090
34863SOL     OW 6595   7.751   8.922   6.053
34863SOL    HW1 6596   7.824   8.949   6.108
34863SOL    HW2 6597   7.788   8.854   5.997
34864SOL     OW 6598   0.742   7.061  10.774
34864SOL    HW1 6599   0.802   7.000  10.731
34864SOL    HW2 6600   0.689   7.097  10.703
34865SOL     OW 6601  11.100   0.713   9.970
34865SOL    HW1 6602  11.120   0.681  10.058
34865SOL    HW2 6603  11.033   0.780   9.983
34866SOL     OW 6604   4.463   1.969   6.110
34866SOL    HW1 6605   4.547   1.974   6.155
34866SOL    HW2 6606   4.457   2.051   6.061
34867SOL     OW 6607   7.903   7.098   0.505
34867SOL    HW1 6608   7.872   7.187   0.521
34867SOL    HW2 6609   7.994   7.098   0.536
34868SOL     OW 6610   8.903   7.812   8.833
34868SOL    HW1 6611   8.894   7.871   8.907
34868SOL    HW2 6612   8.880   7.865   8.757
34869SOL     OW 6613   4.482   9.888   8.973
34869SOL    HW1 6614   4.469   9.982   8.961
34869SOL    HW2 6615   4.575   9.874   8.953
34870SOL     OW 6616   9.010   6.727   0.656
34870SOL    HW1 6617   9.024   6.765   0.742
34870SOL    HW2 6618   9.096   6.695   0.629
34871SOL     OW 6619   2.204   6.513   9.490
34871SOL    HW1 6620   2.187   6.442   9.552
34871SOL    HW2 6621   2.273   6.565   9.531
34872SOL     OW 6622   8.047   9.044   7.083
34872SOL    HW1 6623   8.081   8.977   7.023
34872SOL    HW2 6624   8.100   9.122   7.065
34873SOL     OW 6625   9.144   5.808   2.878
34873SOL    HW1 6626   9.156   5.724   2.923
34873SOL    HW2 6627   9.090   5.859   2.937
34874SOL     OW 6628   8.894   3.563   7.943
34874SOL    HW1 6629   8.842   3.643   7.934
34874SOL    HW2 6630   8.984   3.593   7.951
34875SOL     OW 6631   9.604   5.716   4.393
34875SOL    HW1 6632   9.575   5.748   4.307
34875SOL    HW2 6633   9.532   5.660   4.423
34876SOL     OW 6634   9.197   7.584   2.829
34876SOL    HW1 6635   9.283   7.604   2.865
34876SOL    HW2 6636   9.147   7.551   2.903
34877SOL     OW 6637  10.070   4.894  10.554
34877SOL    HW1 6638  10.055   4.947  10.632
34877SOL    HW2 6639  10.164   4.903  10.536
34878SOL     OW 6640   3.358   4.057   8.019
34878SOL    HW1 6641   3.312   4.106   8.086
34878SOL    HW2 6642   3.289   4.025   7.961
34879SOL     OW 6643   4.845   6.433   4.282
34879SOL    HW1 6644   4.827   6.432   4.188
34879SOL    HW2 6645   4.759   6.423   4.323
34880SOL     OW 6646   9.482   1.093   8.180
34880SOL    HW1 6647   9.425   1.149   8.128
34880SOL    HW2 6648   9.492   1.014   8.127
34881SOL     OW 6649  10.103   6.364   5.907
34881SOL    HW1 6650  10.094   6.286   5.963
34881SOL    HW2 6651  10.088   6.438   5.965
34882SOL     OW 6652   8.648   8.998   8.839
34882SOL    HW1 6653   8.677   9.027   8.752
34882SOL    HW2 6654   8.696   8.916   8.854
34883SOL     OW 6655   6.171   1.302   8.237
34883SOL    HW1 6656   6.179   1.275   8.328
34883SOL    HW2 6657   6.253   1.273   8.196
34884SOL     OW 6658   1.452   8.319   4.512
34884SOL    HW1 6659   1.449   8.248   4.576
34884SOL    HW2 6660   1.400   8.389   4.551
34885SOL     OW 6661  10.370   2.270   0.808
34885SOL    HW1 6662  10.452   2.319   0.811
34885SOL    HW2 6663  10.352   2.246   0.899
34886SOL     OW 6664   6.305   9.418   9.641
34886SOL    HW1 6665   6.388   9.421   9.688
34886SOL    HW2 6666   6.280   9.326   9.644
34887SOL     OW 6667   4.303   2.538   5.715
34887SOL    HW1 6668   4.367   2.594   5.671
34887SOL    HW2 6669   4.218   2.575   5.692
34888SOL     OW 6670   8.910   1.672   5.309
34888SOL    HW1 6671   8.911   1.625   5.392
34888SOL    HW2 6672   8.885   1.605   5.244
34889SOL     OW 6673   8.697   1.523   0.518
34889SOL    HW1 6674   8.610   1.536   0.554
34889SOL    HW2 6675   8.688   1.543   0.425
34890SOL     OW 6676   7.130   8.891   9.417
34890SOL    HW1 6677   7.189   8.865   9.345
34890SOL    HW2 6678   7.062   8.823   9.418
34891SOL     OW 6679   9.293  10.339   3.550
34891SOL    HW1 6680   9.200  10.330   3.568
34891SOL    HW2 6681   9.311  10.272   3.484
34892SOL     OW 6682   7.731   8.590   1.720
34892SOL    HW1 6683   7.716   8.677   1.755
34892SOL    HW2 6684   7.690   8.531   1.783
34893SOL     OW 6685   4.594   6.311   6.378
34893SOL    HW1 6686   4.560   6.313   6.288
34893SOL    HW2 6687   4.618   6.219   6.392
34894SOL     OW 6688   9.790   9.702   5.662
34894SOL    HW1 6689   9.834   9.768   5.715
34894SOL    HW2 6690   9.847   9.690   5.586
34895SOL     OW 6691   4.929   8.434   5.623
34895SOL    HW1 6692   4.903   8.462   5.710
34895SOL    HW2 6693   4.853   8.454   5.568
34896SOL     OW 6694   5.221   0.734   1.184
34896SOL    HW1 6695   5.259   0.777   1.260
34896SOL    HW2 6696   5.237   0.641   1.199
34897SOL     OW 6697   8.047   5.519   4.306
34897SOL    HW1 6698   8.076   5.523   4.397
34897SOL    HW2 6699   7.952   5.517   4.311
34898SOL     OW 6700   2.388   0.568  10.032
34898SOL    HW1 6701   2.411   0.649   9.987
34898SOL    HW2 6702   2.465   0.546  10.084
34899SOL     OW 6703   7.424   8.986   0.745
34899SOL    HW1 6704   7.383   8.924   0.684
34899SOL    HW2 6705   7.459   8.931   0.815
34900SOL     OW 6706  10.374  10.944   1.263
34900SOL    HW1 6707  10.433  11.020   1.258
34900SOL    HW2 6708  10.426  10.871   1.227
34901SOL     OW 6709   0.091   9.355   6.152
34901SOL    HW1 6710  -0.002   9.341   6.133
34901SOL    HW2 6711   0.135   9.281   6.108
34902SOL     OW 6712   3.403   8.809   5.232
34902SOL    HW1 6713   3.392   8.846   5.319
34902SOL    HW2 6714   3.479   8.751   5.239
34903SOL     OW 6715   3.033   6.249   4.518
34903SOL    HW1 6716   3.072   6.310   4.580
34903SOL    HW2 6717   3.053   6.162   4.554
34904SOL     OW 6718  10.251   5.514   0.389
34904SOL    HW1 6719  10.291   5.460   0.321
34904SOL    HW2 6720  10.280   5.474   0.471
34905SOL     OW 6721   8.677   5.672   6.231
34905SOL    HW1 6722   8.725   5.646   6.309
34905SOL    HW2 6723   8.723   5.628   6.159
34906SOL     OW 6724   2.770   9.540  10.986
34906SOL    HW1 6725   2.697   9.492  10.946
34906SOL    HW2 6726   2.823   9.472  11.028
34907SOL     OW 6727   1.053   3.979   9.066
34907SOL    HW1 6728   1.037   3.910   9.001
34907SOL    HW2 6729   1.053   3.933   9.150
34908SOL     OW 6730   6.361  10.852   4.562
34908SOL    HW1 6731   6.363  10.757   4.572
34908SOL    HW2 6732   6.369  10.866   4.467
34909SOL     OW 6733  10.113   0.730   6.876
34909SOL    HW1 6734  10.206   0.730   6.854
34909SOL    HW2 6735  10.070   0.758   6.795
34910SOL     OW 6736   1.221   4.423   0.641
34910SOL    HW1 6737   1.215   4.367   0.563
34910SOL    HW2 6738   1.298   4.478   0.625
34911SOL     OW 6739   8.383   7.660   5.288
34911SOL    HW1 6740   8.402   7.566   5.280
34911SOL    HW2 6741   8.469   7.701   5.298
34912SOL     OW 6742   7.830   8.775   5.142
34912SOL    HW1 6743   7.799   8.760   5.052
34912SOL    HW2 6744   7.755   8.752   5.197
34913SOL     OW 6745   4.151   7.858   7.124
34913SOL    HW1 6746   4.197   7.929   7.169
34913SOL    HW2 6747   4.220   7.812   7.075
34914SOL     OW 6748   3.299   0.632   5.789
34914SOL    HW1 6749   3.206   0.617   5.805
34914SOL    HW2 6750   3.314   0.595   5.702
34915SOL     OW 6751   8.710   7.311   3.567
34915SOL    HW1 6752   8.750   7.389   3.605
34915SOL    HW2 6753   8.623   7.339   3.539
34916SOL     OW 6754   8.346   7.608   8.216
34916SOL    HW1 6755   8.367   7.548   8.287
34916SOL    HW2 6756   8.323   7.550   8.143
34917SOL     OW 6757   8.839   8.454  10.375
34917SOL    HW1 6758   8.770   8.454  10.441
34917SOL    HW2 6759   8.792   8.460  10.292
34918SOL     OW 6760   7.105   7.666   6.786
34918SOL    HW1 6761   7.142   7.751   6.763
34918SOL    HW2 6762   7.122   7.656   6.879
34919SOL     OW 6763   9.586   3.170   5.346
34919SOL    HW1 6764   9.643   3.093   5.337
34919SOL    HW2 6765   9.569   3.198   5.256
34920SOL     OW 6766   9.170   8.584   1.127
34920SOL    HW1 6767   9.263   8.582   1.150
34920SOL    HW2 6768   9.124   8.592   1.210
34921SOL     OW 6769   5.868   6.511  10.157
34921SOL    HW1 6770   5.957   6.508  10.122
34921SOL    HW2 6771   5.875   6.475  10.245
34922SOL     OW 6772   9.509  11.009   9.154
34922SOL    HW1 6773   9.588  10.967   9.187
34922SOL    HW2 6774   9.461  10.939   9.110
34923SOL     OW 6775  10.225   7.985   6.736
34923SOL    HW1 6776  10.273   8.054   6.690
34923SOL    HW2 6777  10.257   7.903   6.697
34924SOL     OW 6778   8.779   4.313   5.634
34924SOL    HW1 6779   8.763   4.294   5.541
34924SOL    HW2 6780   8.693   4.337   5.669
34925SOL     OW 6781   4.940   7.496   9.780
34925SOL    HW1 6782   4.993   7.453   9.712
34925SOL    HW2 6783   4.972   7.586   9.782
34926SOL     OW 6784   7.614   0.308   7.989
34926SOL    HW1 6785   7.613   0.338   7.898
34926SOL    HW2 6786   7.601   0.387   8.041
34927SOL     OW 6787   6.732  10.573   4.540
34927SOL    HW1 6788   6.719  10.478   4.535
34927SOL    HW2 6789   6.740  10.601   4.449
34928SOL     OW 6790   3.632   6.167   8.031
34928SOL    HW1 6791   3.649   6.105   7.959
34928SOL    HW2 6792   3.701   6.149   8.094
34929SOL     OW 6793   4.576   8.371   1.321
34929SOL    HW1 6794   4.535   8.358   1.235
34929SOL    HW2 6795   4.503   8.386   1.381
34930SOL     OW 6796   8.017   8.061   3.316
34930SOL    HW1 6797   8.086   8.126   3.303
34930SOL    HW2 6798   8.062   7.985   3.353
34931SOL     OW 6799  10.596   8.910  10.358
34931SOL    HW1 6800  10.640   8.991  10.334
34931SOL    HW2 6801  10.633   8.887  10.443
34932SOL     OW 6802   0.182   5.449   2.699
34932SOL    HW1 6803   0.197   5.543   2.698
34932SOL    HW2 6804   0.235   5.415   2.626
34933SOL     OW 6805   7.618   9.548   7.169
34933SOL    HW1 6806   7.639   9.625   7.117
34933SOL    HW2 6807   7.658   9.475   7.120
34934SOL     OW 6808   1.502   6.596   7.211
34934SOL    HW1 6809   1.593   6.571   7.194
34934SOL    HW2 6810   1.507   6.659   7.283
34935SOL     OW 6811   9.154  10.140   8.003
34935SOL    HW1 6812   9.214  10.214   8.011
34935SOL    HW2 6813   9.067  10.179   7.997
34936SOL     OW 6814   1.822   0.180   0.650
34936SOL    HW1 6815   1.809   0.114   0.718
34936SOL    HW2 6816   1.912   0.166   0.620
34937SOL     OW 6817  10.458   4.825   2.663
34937SOL    HW1 6818  10.415   4.756   2.714
34937SOL    HW2 6819  10.465   4.788   2.575
34938SOL     OW 6820   2.953   3.789   9.841
34938SOL    HW1 6821   3.019   3.720   9.851
34938SOL    HW2 6822   2.999   3.869   9.866
34939SOL     OW 6823   6.428   9.239   5.864
34939SOL    HW1 6824   6.338   9.267   5.879
34939SOL    HW2 6825   6.421   9.169   5.799
34940SOL     OW 6826   7.065   6.566   8.080
34940SOL    HW1 6827   7.082   6.597   7.991
34940SOL    HW2 6828   7.128   6.495   8.093
34941SOL     OW 6829  10.296   5.624   6.587
34941SOL    HW1 6830  10.341   5.596   6.667
34941SOL    HW2 6831  10.274   5.716   6.602
34942SOL     OW 6832   1.101   3.952  10.396
34942SOL    HW1 6833   1.073   3.891  10.327
34942SOL    HW2 6834   1.167   4.007  10.354
34943SOL     OW 6835   9.741  10.108   9.322
34943SOL    HW1 6836   9.765  10.187   9.369
34943SOL    HW2 6837   9.785  10.037   9.370
34944SOL     OW 6838   1.638   2.158   8.773
34944SOL    HW1 6839   1.567   2.097   8.792
34944SOL    HW2 6840   1.693   2.155   8.851
34945SOL     OW 6841   0.351  10.750  11.072
34945SOL    HW1 6842   0.359  10.680  11.007
34945SOL    HW2 6843   0.424  10.809  11.052
34946SOL     OW 6844   8.461   6.863   9.860
34946SOL    HW1 6845   8.549   6.867   9.898
34946SOL    HW2 6846   8.477   6.858   9.765
34947SOL     OW 6847   8.822   3.370   1.092
34947SOL    HW1 6848   8.803   3.277   1.076
34947SOL    HW2 6849   8.748   3.401   1.143
34948SOL     OW 6850   9.585   4.242   0.636
34948SOL    HW1 6851   9.507   4.292   0.661
34948SOL    HW2 6852   9.628   4.222   0.719
34949SOL     OW 6853   9.571   3.032   6.585
34949SOL    HW1 6854   9.584   2.952   6.636
34949SOL    HW2 6855   9.658   3.072   6.581
34950SOL     OW 6856   8.483   0.276  10.696
34950SOL    HW1 6857   8.433   0.223  10.758
34950SOL    HW2 6858   8.418   0.309  10.634
34951SOL     OW 6859   6.413   9.248   9.995
34951SOL    HW1 6860   6.469   9.217   9.924
34951SOL    HW2 6861   6.396   9.339   9.974
34952SOL     OW 6862   9.588   8.770   9.108
34952SOL    HW1 6863   9.621   8.682   9.128
34952SOL    HW2 6864   9.619   8.824   9.180
34953SOL     OW 6865  10.086   9.112   0.483
34953SOL    HW1 6866  10.047   9.104   0.570
34953SOL    HW2 6867  10.016   9.088   0.422
34954SOL     OW 6868   7.797   9.022   7.437
34954SOL    HW1 6869   7.706   9.049   7.422
34954SOL    HW2 6870   7.829   8.997   7.350
34955SOL     OW 6871  10.295   6.634   1.921
34955SOL    HW1 6872  10.216   6.580   1.930
34955SOL    HW2 6873  10.299   6.655   1.827
34956SOL     OW 6874   2.173   4.163   7.397
34956SOL    HW1 6875   2.236   4.235   7.406
34956SOL    HW2 6876   2.203   4.097   7.459
34957SOL     OW 6877   6.877   7.802   5.155
34957SOL    HW1 6878   6.962   7.845   5.161
34957SOL    HW2 6879   6.895   7.721   5.107
34958SOL     OW 6880   7.815   3.327   0.631
34958SOL    HW1 6881   7.751   3.267   0.668
34958SOL    HW2 6882   7.814   3.403   0.689
34959SOL     OW 6883   8.444   1.852   0.874
34959SOL    HW1 6884   8.449   1.848   0.969
34959SOL    HW2 6885   8.535   1.865   0.845
34960SOL     OW 6886   8.192   3.416   1.996
34960SOL    HW1 6887   8.265   3.366   2.034
34960SOL    HW2 6888   8.206   3.506   2.026
34961SOL     OW 6889   4.252   5.806   2.440
34961SOL    HW1 6890   4.304   5.784   2.517
34961SOL    HW2 6891   4.270   5.735   2.378
34962SOL     OW 6892   0.114   2.555   8.768
34962SOL    HW1 6893   0.064   2.601   8.835
34962SOL    HW2 6894   0.191   2.610   8.752
34963SOL     OW 6895   7.906   2.508  10.210
34963SOL    HW1 6896   7.937   2.524  10.121
34963SOL    HW2 6897   7.811   2.510  10.203
34964SOL     OW 6898   9.974  10.435   1.480
34964SOL    HW1 6899   9.955  10.413   1.571
34964SOL    HW2 6900   9.959  10.530   1.474
34965SOL     OW 6901   2.952   0.960   7.600
34965SOL    HW1 6902   2.963   1.000   7.686
34965SOL    HW2 6903   2.872   0.909   7.607
34966SOL     OW 6904   1.362   8.762   2.419
34966SOL    HW1 6905   1.284   8.708   2.432
34966SOL    HW2 6906   1.419   8.740   2.492
34967SOL     OW 6907   1.813   3.873   5.976
34967SOL    HW1 6908   1.734   3.859   6.027
34967SOL    HW2 6909   1.783   3.916   5.896
34968SOL     OW 6910   5.795   2.622   1.173
34968SOL    HW1 6911   5.825   2.621   1.082
34968SOL    HW2 6912   5.846   2.553   1.215
34969SOL     OW 6913   8.150   7.824   7.659
34969SOL    HW1 6914   8.087   7.893   7.637
34969SOL    HW2 6915   8.096   7.746   7.675
34970SOL     OW 6916   6.491   8.594   7.830
34970SOL    HW1 6917   6.430   8.550   7.770
34970SOL    HW2 6918   6.453   8.680   7.844
34971SOL     OW 6919   0.005   2.994   8.706
34971SOL    HW1 6920  -0.020   2.904   8.682
34971SOL    HW2 6921   0.064   3.022   8.636
34972SOL     OW 6922   3.822   3.840   7.770
34972SOL    HW1 6923   3.867   3.857   7.853
34972SOL    HW2 6924   3.812   3.745   7.767
34973SOL     OW 6925   8.592  11.062   9.964
34973SOL    HW1 6926   8.546  11.021   9.891
34973SOL    HW2 6927   8.613  11.150   9.932
34974SOL     OW 6928   0.279   1.737   5.445
34974SOL    HW1 6929   0.238   1.686   5.515
34974SOL    HW2 6930   0.244   1.825   5.456
34975SOL     OW 6931   7.327   6.168   4.512
34975SOL    HW1 6932   7.325   6.072   4.514
34975SOL    HW2 6933   7.259   6.195   4.574
34976SOL     OW 6934   4.224   1.510   4.098
34976SOL    HW1 6935   4.178   1.433   4.064
34976SOL    HW2 6936   4.303   1.475   4.139
34977SOL     OW 6937   2.946   7.253   8.345
34977SOL    HW1 6938   2.903   7.181   8.299
34977SOL    HW2 6939   3.036   7.223   8.356
34978SOL     OW 6940   8.804   7.660   7.257
34978SOL    HW1 6941   8.830   7.593   7.320
34978SOL    HW2 6942   8.824   7.621   7.172
34979SOL     OW 6943   2.229   2.406  10.748
34979SOL    HW1 6944   2.220   2.312  10.766
34979SOL    HW2 6945   2.206   2.414  10.655
34980SOL     OW 6946   8.834   6.659   8.473
34980SOL    HW1 6947   8.792   6.668   8.558
34980SOL    HW2 6948   8.885   6.739   8.463
34981SOL     OW 6949   8.926   6.939   8.883
34981SOL    HW1 6950   8.837   6.926   8.916
34981SOL    HW2 6951   8.949   7.028   8.909
34982SOL     OW 6952   5.642   0.447   8.844
34982SOL    HW1 6953   5.706   0.485   8.904
34982SOL    HW2 6954   5.655   0.494   8.762
34983SOL     OW 6955   5.421   9.495   9.151
34983SOL    HW1 6956   5.457   9.440   9.081
34983SOL    HW2 6957   5.326   9.489   9.140
34984SOL     OW 6958   9.995   3.841   0.510
34984SOL    HW1 6959   9.997   3.884   0.424
34984SOL    HW2 6960   9.908   3.859   0.544
34985SOL     OW 6961   0.278  10.184   1.192
34985SOL    HW1 6962   0.365  10.149   1.208
34985SOL    HW2 6963   0.275  10.197   1.097
34986SOL     OW 6964   6.752   9.008   3.444
34986SOL    HW1 6965   6.761   9.062   3.522
34986SOL    HW2 6966   6.659   8.988   3.438
34987SOL     OW 6967   0.605   8.963   8.631
34987SOL    HW1 6968   0.617   8.996   8.542
34987SOL    HW2 6969   0.694   8.944   8.662
34988SOL     OW 6970   4.725  10.135   3.135
34988SOL    HW1 6971   4.777  10.210   3.108
34988SOL    HW2 6972   4.665  10.169   3.201
34989SOL     OW 6973   9.732   7.699   3.522
34989SOL    HW1 6974   9.671   7.764   3.557
34989SOL    HW2 6975   9.702   7.616   3.559
34990SOL     OW 6976   3.401   9.466   6.073
34990SOL    HW1 6977   3.317   9.511   6.068
34990SOL    HW2 6978   3.380   9.374   6.056
34991SOL     OW 6979   2.278  10.961   3.501
34991SOL    HW1 6980   2.304  10.876   3.537
34991SOL    HW2 6981   2.360  11.011   3.496
34992SOL     OW 6982   5.354   5.897   2.503
34992SOL    HW1 6983   5.343   5.827   2.567
34992SOL    HW2 6984   5.347   5.853   2.418
34993SOL     OW 6985   0.115   6.340   6.687
34993SOL    HW1 6986   0.165   6.397   6.628
34993SOL    HW2 6987   0.045   6.304   6.631
34994SOL     OW 6988   8.736   7.663   2.688
34994SOL    HW1 6989   8.660   7.627   2.642
34994SOL    HW2 6990   8.799   7.682   2.618
34995SOL     OW 6991   0.315   6.152   9.331
34995SOL    HW1 6992   0.388   6.138   9.271
34995SOL    HW2 6993   0.248   6.089   9.302
34996SOL     OW 6994   1.801   2.774   7.967
34996SOL    HW1 6995   1.884   2.727   7.962
34996SOL    HW2 6996   1.799   2.826   7.887
34997SOL     OW 6997   5.368   1.019   8.661
34997SOL    HW1 6998   5.333   0.958   8.726
34997SOL    HW2 6999   5.294   1.075   8.638
34998SOL     OW 7000  11.092   0.894   4.995
34998SOL    HW1 7001  11.136   0.977   5.009
34998SOL    HW2 7002  11.152   0.844   4.938
34999SOL     OW 7003   7.720   7.739  10.003
34999SOL    HW1 7004   7.780   7.802  10.041
34999SOL    HW2 7005   7.654   7.792   9.959
35000SOL     OW 7006   8.320   5.675  10.552
35000SOL    HW1 7007   8.293   5.612  10.485
35000SOL    HW2 7008   8.347   5.620  10.626
35001SOL     OW 7009  10.222   3.347   4.297
35001SOL    HW1 7010  10.163   3.329   4.224
35001SOL    HW2 7011  10.302   3.379   4.255
35002SOL     OW 7012   4.821   4.237   2.844
35002SOL    HW1 7013   4.909   4.199   2.853
35002SOL    HW2 7014   4.825   4.319   2.893
35003SOL     OW 7015   8.404   5.253   6.535
35003SOL    HW1 7016   8.329   5.240   6.477
35003SOL    HW2 7017   8.366   5.280   6.618
35004SOL     OW 7018   7.955  10.443   5.549
35004SOL    HW1 7019   7.920  10.376   5.489
35004SOL    HW2 7020   8.033  10.403   5.587
35005SOL     OW 7021   8.220   7.503   8.923
35005SOL    HW1 7022   8.218   7.438   8.852
35005SOL    HW2 7023   8.214   7.451   9.003
35006SOL     OW 7024   9.719   1.956   7.034
35006SOL    HW1 7025   9.773   2.014   7.088
35006SOL    HW2 7026   9.780   1.890   7.000
35007SOL     OW 7027   9.861   5.397   3.244
35007SOL    HW1 7028   9.953   5.414   3.266
35007SOL    HW2 7029   9.811   5.457   3.299
35008SOL     OW 7030   3.969   8.644   6.913
35008SOL    HW1 7031   3.913   8.599   6.976
35008SOL    HW2 7032   4.054   8.599   6.920
35009SOL     OW 7033   4.963   3.087   1.384
35009SOL    HW1 7034   4.920   3.019   1.331
35009SOL    HW2 7035   5.010   3.140   1.320
35010SOL     OW 7036   5.676   0.608   7.785
35010SOL    HW1 7037   5.741   0.631   7.851
35010SOL    HW2 7038   5.594   0.645   7.817
35011SOL     OW 7039   7.497   4.630   1.948
35011SOL    HW1 7040   7.527   4.679   2.024
35011SOL    HW2 7041   7.403   4.648   1.943
35012SOL     OW 7042   0.403   3.046   6.659
35012SOL    HW1 7043   0.384   2.956   6.685
35012SOL    HW2 7044   0.492   3.061   6.690
35013SOL     OW 7045   9.304   9.061  10.467
35013SOL    HW1 7046   9.307   8.965  10.468
35013SOL    HW2 7047   9.318   9.083  10.375
35014SOL     OW 7048   6.678   4.881   0.346
35014SOL    HW1 7049   6.633   4.822   0.406
35014SOL    HW2 7050   6.609   4.939   0.313
35015SOL     OW 7051   9.678   7.893   6.989
35015SOL    HW1 7052   9.737   7.926   6.921
35015SOL    HW2 7053   9.667   7.966   7.049
35016SOL     OW 7054   9.409   4.992   9.729
35016SOL    HW1 7055   9.381   4.927   9.664
35016SOL    HW2 7056   9.436   4.939   9.804
35017SOL     OW 7057   2.572   2.140   4.291
35017SOL    HW1 7058   2.580   2.079   4.217
35017SOL    HW2 7059   2.522   2.213   4.256
35018SOL     OW 7060   7.156   9.153   9.355
35018SOL    HW1 7061   7.130   9.062   9.373
35018SOL    HW2 7062   7.073   9.201   9.351
35019SOL     OW 7063   4.366   4.309   8.711
35019SOL    HW1 7064   4.274   4.331   8.694
35019SOL    HW2 7065   4.381   4.229   8.661
35020SOL     OW 7066   9.340   0.470   7.909
35020SOL    HW1 7067   9.296   0.555   7.902
35020SOL    HW2 7068   9.363   0.448   7.818
35021SOL     OW 7069   6.725   4.630   6.453
35021SOL    HW1 7070   6.753   4.689   6.523
35021SOL    HW2 7071   6.715   4.545   6.496
35022SOL     OW 7072   3.880   0.624   6.806
35022SOL    HW1 7073   3.841   0.665   6.729
35022SOL    HW2 7074   3.829   0.658   6.879
35023SOL     OW 7075   0.616   4.522   0.247
35023SOL    HW1 7076   0.542   4.528   0.307
35023SOL    HW2 7077   0.639   4.613   0.228
35024SOL     OW 7078   9.763   0.720   9.361
35024SOL    HW1 7079   9.806   0.726   9.446
35024SOL    HW2 7080   9.672   0.697   9.381
35025SOL     OW 7081   8.048   2.198   1.312
35025SOL    HW1 7082   8.054   2.169   1.221
35025SOL    HW2 7083   8.078   2.122   1.363
35026SOL     OW 7084  10.569  10.442   8.908
35026SOL    HW1 7085  10.578  10.349   8.929
35026SOL    HW2 7086  10.626  10.487   8.970
35027SOL     OW 7087   6.871   4.423   4.287
35027SOL    HW1 7088   6.829   4.341   4.261
35027SOL    HW2 7089   6.908   4.405   4.373
35028SOL     OW 7090   4.062   5.070   1.279
35028SOL    HW1 7091   3.999   5.125   1.324
35028SOL    HW2 7092   4.043   5.083   1.186
35029SOL     OW 7093   5.749  10.572   9.171
35029SOL    HW1 7094   5.780  10.584   9.261
35029SOL    HW2 7095   5.673  10.514   9.179
35030SOL     OW 7096   6.653   1.024   4.924
35030SOL    HW1 7097   6.561   1.051   4.920
35030SOL    HW2 7098   6.693   1.084   4.987
35031SOL     OW 7099   9.732   0.780   0.123
35031SOL    HW1 7100   9.816   0.778   0.169
35031SOL    HW2 7101   9.694   0.694   0.140
35032SOL     OW 7102  10.865   5.787   2.042
35032SOL    HW1 7103  10.887   5.869   2.085
35032SOL    HW2 7104  10.794   5.751   2.094
35033SOL     OW 7105  10.804   2.842   9.721
35033SOL    HW1 7106  10.886   2.881   9.691
35033SOL    HW2 7107  10.779   2.782   9.651
35034SOL     OW 7108   9.394   6.083   6.314
35034SOL    HW1 7109   9.452   6.108   6.242
35034SOL    HW2 7110   9.325   6.031   6.272
35035SOL     OW 7111   9.486   7.583   9.207
35035SOL    HW1 7112   9.472   7.619   9.119
35035SOL    HW2 7113   9.416   7.519   9.218
35036SOL     OW 7114  10.218   7.626   9.669
35036SOL    HW1 7115  10.278   7.571   9.619
35036SOL    HW2 7116  10.176   7.681   9.603
35037SOL     OW 7117   4.395   6.818   0.056
35037SOL    HW1 7118   4.456   6.868   0.002
35037SOL    HW2 7119   4.447   6.789   0.131
35038SOL     OW 7120   8.278   1.984  10.516
35038SOL    HW1 7121   8.251   1.907  10.466
35038SOL    HW2 7122   8.247   1.967  10.605
35039SOL     OW 7123   6.612   5.019   7.380
35039SOL    HW1 7124   6.662   5.098   7.360
35039SOL    HW2 7125   6.677   4.949   7.378
35040SOL     OW 7126   4.593   6.308   4.238
35040SOL    HW1 7127   4.499   6.291   4.247
35040SOL    HW2 7128   4.633   6.221   4.241
35041SOL     OW 7129   6.935   5.824  10.901
35041SOL    HW1 7130   7.017   5.858  10.864
35041SOL    HW2 7131   6.951   5.730  10.911
35042SOL     OW 7132   8.025  10.883   6.331
35042SOL    HW1 7133   7.966  10.935   6.386
35042SOL    HW2 7134   7.978  10.801   6.317
35043SOL     OW 7135   8.843   9.990   1.699
35043SOL    HW1 7136   8.792  10.070   1.704
35043SOL    HW2 7137   8.849   9.971   1.605
35044SOL     OW 7138   2.258  10.265   8.619
35044SOL    HW1 7139   2.305  10.245   8.538
35044SOL    HW2 7140   2.300  10.209   8.685
35045SOL     OW 7141   7.583   1.330   3.912
35045SOL    HW1 7142   7.547   1.290   3.991
35045SOL    HW2 7143   7.647   1.393   3.944
35046SOL     OW 7144   2.578   9.948   8.928
35046SOL    HW1 7145   2.590   9.863   8.885
35046SOL    HW2 7146   2.619   9.937   9.013
35047SOL     OW 7147   2.286   8.915   9.328
35047SOL    HW1 7148   2.313   9.002   9.301
35047SOL    HW2 7149   2.308   8.859   9.253
35048SOL     OW 7150   8.526   7.708   1.178
35048SOL    HW1 7151   8.432   7.704   1.162
35048SOL    HW2 7152   8.535   7.701   1.273
35049SOL     OW 7153   7.800   9.837   9.086
35049SOL    HW1 7154   7.865   9.785   9.133
35049SOL    HW2 7155   7.791   9.917   9.138
35050SOL     OW 7156   7.332   3.508   2.161
35050SOL    HW1 7157   7.306   3.442   2.225
35050SOL    HW2 7158   7.257   3.566   2.154
35051SOL     OW 7159   7.292  10.405   0.392
35051SOL    HW1 7160   7.273  10.336   0.456
35051SOL    HW2 7161   7.211  10.456   0.386
35052SOL     OW 7162   3.845   2.810  10.731
35052SOL    HW1 7163   3.852   2.717  10.753
35052SOL    HW2 7164   3.910   2.853  10.787
35053SOL     OW 7165   2.726   3.981   9.924
35053SOL    HW1 7166   2.708   3.894   9.887
35053SOL    HW2 7167   2.810   3.971   9.969
35054SOL     OW 7168   6.701   5.986   7.918
35054SOL    HW1 7169   6.667   5.955   8.002
35054SOL    HW2 7170   6.648   6.063   7.897
35055SOL     OW 7171   8.674   0.912   9.893
35055SOL    HW1 7172   8.719   0.940   9.813
35055SOL    HW2 7173   8.620   0.838   9.865
35056SOL     OW 7174   7.503   8.996   1.973
35056SOL    HW1 7175   7.517   9.086   1.944
35056SOL    HW2 7176   7.539   8.942   1.902
35057SOL     OW 7177   0.586   9.536   0.019
35057SOL    HW1 7178   0.551   9.616   0.057
35057SOL    HW2 7179   0.509   9.480   0.005
35058SOL     OW 7180   1.110   8.931   5.663
35058SOL    HW1 7181   1.183   8.900   5.717
35058SOL    HW2 7182   1.145   9.006   5.616
35059SOL     OW 7183   2.688   6.865   3.553
35059SOL    HW1 7184   2.783   6.862   3.561
35059SOL    HW2 7185   2.669   6.809   3.477
35060SOL     OW 7186   7.775   1.024   8.645
35060SOL    HW1 7187   7.776   0.935   8.680
35060SOL    HW2 7188   7.865   1.039   8.615
35061SOL     OW 7189   5.308   7.752   8.320
35061SOL    HW1 7190   5.397   7.768   8.352
35061SOL    HW2 7191   5.252   7.808   8.374
35062SOL     OW 7192   4.348   0.084   6.154
35062SOL    HW1 7193   4.253   0.098   6.153
35062SOL    HW2 7194   4.374   0.101   6.244
35063SOL     OW 7195   8.198   5.465  10.418
35063SOL    HW1 7196   8.164   5.500  10.335
35063SOL    HW2 7197   8.130   5.404  10.448
35064SOL     OW 7198  10.786   8.140   4.326
35064SOL    HW1 7199  10.857   8.197   4.298
35064SOL    HW2 7200  10.792   8.065   4.266
35065SOL     OW 7201  10.122   1.769   8.037
35065SOL    HW1 7202  10.152   1.860   8.031
35065SOL    HW2 7203  10.048   1.771   8.097
35066SOL     OW 7204   8.869  10.602   5.626
35066SOL    HW1 7205   8.939  10.641   5.678
35066SOL    HW2 7206   8.833  10.675   5.576
35067SOL     OW 7207   8.915   0.423   0.191
35067SOL    HW1 7208   9.004   0.432   0.226
35067SOL    HW2 7209   8.890   0.333   0.212
35068SOL     OW 7210   0.111   7.505   9.476
35068SOL    HW1 7211   0.124   7.487   9.383
35068SOL    HW2 7212   0.193   7.544   9.505
35069SOL     OW 7213   7.877   8.094   5.614
35069SOL    HW1 7214   7.967   8.061   5.610
35069SOL    HW2 7215   7.823   8.021   5.581
35070SOL     OW 7216   7.515   7.482   1.458
35070SOL    HW1 7217   7.537   7.575   1.458
35070SOL    HW2 7218   7.538   7.451   1.546
35071SOL     OW 7219  10.490  10.705   1.537
35071SOL    HW1 7220  10.435  10.657   1.598
35071SOL    HW2 7221  10.494  10.794   1.573
35072SOL     OW 7222   0.721   1.266   4.304
35072SOL    HW1 7223   0.639   1.316   4.301
35072SOL    HW2 7224   0.781   1.315   4.248
35073SOL     OW 7225   5.844   6.091   5.950
35073SOL    HW1 7226   5.931   6.082   5.911
35073SOL    HW2 7227   5.847   6.175   5.996
35074SOL     OW 7228   6.841  10.723   6.544
35074SOL    HW1 7229   6.766  10.665   6.556
35074SOL    HW2 7230   6.820  10.801   6.595
35075SOL     OW 7231   3.278   8.019   0.705
35075SOL    HW1 7232   3.219   8.094   0.709
35075SOL    HW2 7233   3.364   8.057   0.689
35076SOL     OW 7234  10.667   9.128   8.180
35076SOL    HW1 7235  10.572   9.141   8.185
35076SOL    HW2 7236  10.684   9.108   8.088
35077SOL     OW 7237   5.747   4.571  10.551
35077SOL    HW1 7238   5.820   4.559  10.612
35077SOL    HW2 7239   5.758   4.660  10.517
35078SOL     OW 7240   8.951   9.767   4.433
35078SOL    HW1 7241   8.966   9.851   4.391
35078SOL    HW2 7242   8.877   9.729   4.385
35079SOL     OW 7243   8.755   7.835   8.603
35079SOL    HW1 7244   8.669   7.862   8.635
35079SOL    HW2 7245   8.776   7.898   8.534
35080SOL     OW 7246   9.827   7.782   8.490
35080SOL    HW1 7247   9.871   7.861   8.460
35080SOL    HW2 7248   9.795   7.741   8.409
35081SOL     OW 7249   5.720   3.197  10.801
35081SOL    HW1 7250   5.767   3.115  10.817
35081SOL    HW2 7251   5.779   3.247  10.745
35082SOL     OW 7252   2.618   9.317   0.553
35082SOL    HW1 7253   2.543   9.266   0.584
35082SOL    HW2 7254   2.595   9.341   0.463
35083SOL     OW 7255   8.018  10.336   0.898
35083SOL    HW1 7256   8.002  10.255   0.947
35083SOL    HW2 7257   7.956  10.332   0.825
35084SOL     OW 7258   4.637   7.073   4.526
35084SOL    HW1 7259   4.625   7.064   4.431
35084SOL    HW2 7260   4.648   6.983   4.557
35085SOL     OW 7261   7.120   0.173   3.315
35085SOL    HW1 7262   7.076   0.155   3.232
35085SOL    HW2 7263   7.188   0.106   3.321
35086SOL     OW 7264   8.396   4.171   9.999
35086SOL    HW1 7265   8.469   4.233  10.003
35086SOL    HW2 7266   8.333   4.202  10.063
35087SOL     OW 7267   9.993   8.761  11.040
35087SOL    HW1 7268  10.030   8.847  11.021
35087SOL    HW2 7269   9.978   8.761  11.134
35088SOL     OW 7270   4.656   1.893  10.123
35088SOL    HW1 7271   4.632   1.985  10.130
35088SOL    HW2 7272   4.633   1.869  10.033
35089SOL     OW 7273   9.488   0.097   9.852
35089SOL    HW1 7274   9.417   0.097   9.788
35089SOL    HW2 7275   9.543   0.171   9.827
35090SOL     OW 7276  10.821   5.628   4.705
35090SOL    HW1 7277  10.846   5.608   4.614
35090SOL    HW2 7278  10.742   5.576   4.719
35091SOL     OW 7279   4.776   0.695   8.619
35091SOL    HW1 7280   4.698   0.739   8.652
35091SOL    HW2 7281   4.774   0.710   8.524
35092SOL     OW 7282   7.529   0.064  11.041
35092SOL    HW1 7283   7.445   0.039  11.079
35092SOL    HW2 7284   7.581  -0.017  11.042
35093SOL     OW 7285   8.820   6.652   7.046
35093SOL    HW1 7286   8.880   6.577   7.046
35093SOL    HW2 7287   8.795   6.663   7.137
35094SOL     OW 7288   8.908   9.296   7.253
35094SOL    HW1 7289   8.827   9.258   7.288
35094SOL    HW2 7290   8.888   9.388   7.240
35095SOL     OW 7291   3.870   1.541  10.893
35095SOL    HW1 7292   3.882   1.525  10.986
35095SOL    HW2 7293   3.775   1.545  10.881
35096SOL     OW 7294   5.126  10.267   5.899
35096SOL    HW1 7295   5.050  10.321   5.879
35096SOL    HW2 7296   5.201  10.320   5.873
35097SOL     OW 7297   3.648   6.732   0.130
35097SOL    HW1 7298   3.651   6.727   0.035
35097SOL    HW2 7299   3.696   6.654   0.160
35098SOL     OW 7300   7.807   5.050   2.466
35098SOL    HW1 7301   7.843   5.111   2.530
35098SOL    HW2 7302   7.812   4.964   2.508
35099SOL     OW 7303   3.736  10.249   5.218
35099SOL    HW1 7304   3.700  10.310   5.281
35099SOL    HW2 7305   3.660  10.200   5.187
35100SOL     OW 7306   6.536   8.678   4.443
35100SOL    HW1 7307   6.598   8.637   4.503
35100SOL    HW2 7308   6.450   8.657   4.479
35101SOL     OW 7309   2.414   6.643   9.900
35101SOL    HW1 7310   2.489   6.642   9.840
35101SOL    HW2 7311   2.426   6.722   9.952
35102SOL     OW 7312   4.583   8.900   2.282
35102SOL    HW1 7313   4.590   8.809   2.251
35102SOL    HW2 7314   4.537   8.893   2.365
35103SOL     OW 7315   9.072   8.724   4.077
35103SOL    HW1 7316   8.999   8.763   4.125
35103SOL    HW2 7317   9.149   8.742   4.130
35104SOL     OW 7318   9.072   8.004   0.388
35104SOL    HW1 7319   9.137   7.998   0.318
35104SOL    HW2 7320   9.043   8.095   0.386
35105SOL     OW 7321   0.969   1.412   6.124
35105SOL    HW1 7322   1.002   1.354   6.055
35105SOL    HW2 7323   0.875   1.416   6.108
35106SOL     OW 7324   7.590  11.097   3.543
35106SOL    HW1 7325   7.658  11.117   3.478
35106SOL    HW2 7326   7.629  11.029   3.598
35107SOL     OW 7327   4.604   3.345   7.787
35107SOL    HW1 7328   4.686   3.315   7.826
35107SOL    HW2 7329   4.576   3.271   7.732
35108SOL     OW 7330   4.531   7.944   6.981
35108SOL    HW1 7331   4.511   7.990   6.899
35108SOL    HW2 7332   4.565   8.012   7.039
35109SOL     OW 7333   6.388   6.586   0.606
35109SOL    HW1 7334   6.369   6.538   0.686
35109SOL    HW2 7335   6.308   6.636   0.589
35110SOL     OW 7336   9.898   8.025  10.289
35110SOL    HW1 7337   9.884   7.949  10.232
35110SOL    HW2 7338   9.968   7.998  10.348
35111SOL     OW 7339   0.024   1.164   9.973
35111SOL    HW1 7340   0.094   1.218   9.936
35111SOL    HW2 7341   0.019   1.190  10.065
35112SOL     OW 7342   8.948   9.702   9.565
35112SOL    HW1 7343   8.956   9.797   9.558
35112SOL    HW2 7344   8.934   9.672   9.475
35113SOL     OW 7345   1.207   9.554  10.717
35113SOL    HW1 7346   1.286   9.500  10.709
35113SOL    HW2 7347   1.150   9.504  10.775
35114SOL     OW 7348   7.698  10.081   4.795
35114SOL    HW1 7349   7.633  10.027   4.750
35114SOL    HW2 7350   7.675  10.075   4.887
35115SOL     OW 7351   7.741   4.830   1.665
35115SOL    HW1 7352   7.769   4.738   1.662
35115SOL    HW2 7353   7.769   4.861   1.751
35116SOL     OW 7354   8.312   6.262   2.670
35116SOL    HW1 7355   8.373   6.287   2.739
35116SOL    HW2 7356   8.264   6.342   2.650
35117SOL     OW 7357   9.030   1.382   3.256
35117SOL    HW1 7358   9.027   1.359   3.163
35117SOL    HW2 7359   9.121   1.408   3.270
35118SOL     OW 7360   4.702   6.628   8.968
35118SOL    HW1 7361   4.747   6.619   9.052
35118SOL    HW2 7362   4.771   6.651   8.906
35119SOL     OW 7363   9.611   4.252   6.842
35119SOL    HW1 7364   9.706   4.246   6.833
35119SOL    HW2 7365   9.595   4.340   6.875
35120SOL     OW 7366   9.352   5.983   1.143
35120SOL    HW1 7367   9.270   5.992   1.095
35120SOL    HW2 7368   9.413   5.945   1.079
35121SOL     OW 7369  10.948  10.578  10.662
35121SOL    HW1 7370  10.909  10.655  10.620
35121SOL    HW2 7371  11.038  10.604  10.681
35122SOL     OW 7372   2.906   0.737   7.914
35122SOL    HW1 7373   2.848   0.731   7.838
35122SOL    HW2 7374   2.855   0.702   7.987
35123SOL     OW 7375   5.535   1.148   8.937
35123SOL    HW1 7376   5.571   1.140   8.848
35123SOL    HW2 7377   5.605   1.116   8.994
35124SOL     OW 7378   7.472   1.304   1.705
35124SOL    HW1 7379   7.481   1.215   1.739
35124SOL    HW2 7380   7.421   1.294   1.624
35125SOL     OW 7381   2.312   1.001   8.270
35125SOL    HW1 7382   2.244   1.051   8.225
35125SOL    HW2 7383   2.394   1.045   8.247
35126SOL     OW 7384   8.740  10.238  10.990
35126SOL    HW1 7385   8.794  10.241  10.911
35126SOL    HW2 7386   8.679  10.310  10.980
35127SOL     OW 7387   7.344   9.235   3.719
35127SOL    HW1 7388   7.383   9.185   3.791
35127SOL    HW2 7389   7.336   9.324   3.753
35128SOL     OW 7390   7.903   4.051   2.519
35128SOL    HW1 7391   7.899   3.972   2.465
35128SOL    HW2 7392   7.896   4.123   2.456
35129SOL     OW 7393   0.404   1.257   0.152
35129SOL    HW1 7394   0.443   1.222   0.072
35129SOL    HW2 7395   0.363   1.339   0.125
35130SOL     OW 7396   2.014   4.499  11.107
35130SOL    HW1 7397   2.063   4.477  11.027
35130SOL    HW2 7398   1.924   4.471  11.088
35131SOL     OW 7399  10.633   5.931  11.046
35131SOL    HW1 7400  10.579   6.001  11.009
35131SOL    HW2 7401  10.666   5.883  10.970
35132SOL     OW 7402   7.388   5.852   4.249
35132SOL    HW1 7403   7.455   5.873   4.314
35132SOL    HW2 7404   7.437   5.809   4.178
35133SOL     OW 7405   9.619  10.722   0.464
35133SOL    HW1 7406   9.707  10.715   0.427
35133SOL    HW2 7407   9.582  10.634   0.455
35134SOL     OW 7408   5.117   2.316   5.399
35134SOL    HW1 7409   5.041   2.290   5.347
35134SOL    HW2 7410   5.187   2.257   5.370
35135SOL     OW 7411   3.167  10.319   8.927
35135SOL    HW1 7412   3.129  10.289   8.844
35135SOL    HW2 7413   3.261  10.325   8.909
35136SOL     OW 7414   5.124   8.866   5.534
35136SOL    HW1 7415   5.135   8.922   5.610
35136SOL    HW2 7416   5.148   8.778   5.564
35137SOL     OW 7417   9.754   6.298   2.827
35137SOL    HW1 7418   9.678   6.336   2.871
35137SOL    HW2 7419   9.784   6.229   2.886
35138SOL     OW 7420   0.337   4.394   1.310
35138SOL    HW1 7421   0.370   4.435   1.389
35138SOL    HW2 7422   0.296   4.465   1.261
35139SOL     OW 7423   8.851  10.276   2.620
35139SOL    HW1 7424   8.903  10.198   2.639
35139SOL    HW2 7425   8.907  10.329   2.564
35140SOL     OW 7426   7.048   1.421   4.025
35140SOL    HW1 7427   7.016   1.446   3.938
35140SOL    HW2 7428   7.136   1.388   4.009
35141SOL     OW 7429   4.921   0.383   1.598
35141SOL    HW1 7430   4.869   0.307   1.572
35141SOL    HW2 7431   4.982   0.396   1.525
35142SOL     OW 7432  10.771  10.230   8.592
35142SOL    HW1 7433  10.682  10.229   8.626
35142SOL    HW2 7434  10.781  10.317   8.553
35143SOL     OW 7435  10.252   0.870   5.327
35143SOL    HW1 7436  10.238   0.839   5.416
35143SOL    HW2 7437  10.164   0.874   5.289
35144SOL     OW 7438   2.460   6.751   0.875
35144SOL    HW1 7439   2.514   6.718   0.803
35144SOL    HW2 7440   2.379   6.780   0.833
35145SOL     OW 7441   5.327   9.293   7.641
35145SOL    HW1 7442   5.361   9.203   7.645
35145SOL    HW2 7443   5.275   9.295   7.560
35146SOL     OW 7444   8.886   2.175   4.251
35146SOL    HW1 7445   8.941   2.129   4.187
35146SOL    HW2 7446   8.849   2.105   4.305
35147SOL     OW 7447   3.430   3.254   4.266
35147SOL    HW1 7448   3.431   3.191   4.194
35147SOL    HW2 7449   3.395   3.205   4.340
35148SOL     OW 7450   2.179  10.611   2.527
35148SOL    HW1 7451   2.084  10.613   2.531
35148SOL    HW2 7452   2.207  10.665   2.601
35149SOL     OW 7453   5.516  10.601   9.388
35149SOL    HW1 7454   5.507  10.677   9.445
35149SOL    HW2 7455   5.428  10.585   9.355
35150SOL     OW 7456  10.940   9.668   9.427
35150SOL    HW1 7457  11.006   9.730   9.397
35150SOL    HW2 7458  10.865   9.722   9.451
35151SOL     OW 7459   0.401  10.314   7.751
35151SOL    HW1 7460   0.351  10.379   7.800
35151SOL    HW2 7461   0.342  10.239   7.745
35152SOL     OW 7462   2.218   8.278   6.531
35152SOL    HW1 7463   2.222   8.195   6.482
35152SOL    HW2 7464   2.142   8.269   6.588
35153SOL     OW 7465   6.757   6.038  10.336
35153SOL    HW1 7466   6.784   6.060  10.425
35153SOL    HW2 7467   6.835   5.999  10.296
35154SOL     OW 7468   5.232   0.671  10.636
35154SOL    HW1 7469   5.287   0.742  10.668
35154SOL    HW2 7470   5.242   0.675  10.541
35155SOL     OW 7471   9.800  10.314   9.493
35155SOL    HW1 7472   9.795  10.243   9.557
35155SOL    HW2 7473   9.775  10.392   9.541
35156SOL     OW 7474   7.581   4.283   3.408
35156SOL    HW1 7475   7.639   4.256   3.337
35156SOL    HW2 7476   7.501   4.232   3.395
35157SOL     OW 7477   8.459   1.582  10.554
35157SOL    HW1 7478   8.505   1.505  10.521
35157SOL    HW2 7479   8.513   1.656  10.526
35158SOL     OW 7480   1.468   7.791   8.646
35158SOL    HW1 7481   1.429   7.746   8.721
35158SOL    HW2 7482   1.561   7.800   8.669
35159SOL     OW 7483   9.839   4.419   9.542
35159SOL    HW1 7484   9.772   4.420   9.610
35159SOL    HW2 7485   9.790   4.415   9.460
35160SOL     OW 7486   6.866   4.686   7.885
35160SOL    HW1 7487   6.940   4.626   7.896
35160SOL    HW2 7488   6.821   4.654   7.807
35161SOL     OW 7489   7.947   3.863   8.685
35161SOL    HW1 7490   8.006   3.804   8.732
35161SOL    HW2 7491   7.994   3.946   8.680
35162SOL     OW 7492   0.279   7.715   7.021
35162SOL    HW1 7493   0.322   7.755   7.096
35162SOL    HW2 7494   0.284   7.781   6.952
35163SOL     OW 7495   6.906   6.511   7.133
35163SOL    HW1 7496   6.868   6.488   7.048
35163SOL    HW2 7497   6.968   6.440   7.151
35164SOL     OW 7498   3.284   3.227  10.314
35164SOL    HW1 7499   3.358   3.234  10.374
35164SOL    HW2 7500   3.303   3.148  10.262
35165SOL     OW 7501   6.977  10.592   5.133
35165SOL    HW1 7502   6.971  10.687   5.144
35165SOL    HW2 7503   6.954  10.577   5.041
35166SOL     OW 7504   3.969   0.077   3.368
35166SOL    HW1 7505   3.931   0.011   3.310
35166SOL    HW2 7506   4.006   0.026   3.440
35167SOL     OW 7507   1.339   1.668   3.829
35167SOL    HW1 7508   1.293   1.584   3.838
35167SOL    HW2 7509   1.317   1.717   3.908
35168SOL     OW 7510   5.640   9.839   1.578
35168SOL    HW1 7511   5.611   9.887   1.655
35168SOL    HW2 7512   5.732   9.817   1.596
35169SOL     OW 7513   8.338   0.732   8.810
35169SOL    HW1 7514   8.398   0.737   8.884
35169SOL    HW2 7515   8.286   0.653   8.826
35170SOL     OW 7516   2.500   9.695   9.080
35170SOL    HW1 7517   2.531   9.613   9.119
35170SOL    HW2 7518   2.549   9.763   9.125
35171SOL     OW 7519   7.778   2.661   2.570
35171SOL    HW1 7520   7.868   2.666   2.603
35171SOL    HW2 7521   7.744   2.750   2.578
35172SOL     OW 7522   0.084  10.951   5.181
35172SOL    HW1 7523   0.012  10.978   5.238
35172SOL    HW2 7524   0.132  11.032   5.163
35173SOL     OW 7525  10.702   7.577   4.111
35173SOL    HW1 7526  10.786   7.575   4.157
35173SOL    HW2 7527  10.724   7.560   4.019
35174SOL     OW 7528   5.305   3.166   9.458
35174SOL    HW1 7529   5.367   3.103   9.420
35174SOL    HW2 7530   5.250   3.113   9.516
35175SOL     OW 7531   4.448   8.303   2.594
35175SOL    HW1 7532   4.421   8.327   2.682
35175SOL    HW2 7533   4.419   8.376   2.539
35176SOL     OW 7534  10.876   5.329   7.788
35176SOL    HW1 7535  10.967   5.336   7.817
35176SOL    HW2 7536  10.844   5.419   7.786
35177SOL     OW 7537   0.321   3.104   8.929
35177SOL    HW1 7538   0.249   3.074   8.985
35177SOL    HW2 7539   0.285   3.179   8.882
35178SOL     OW 7540   1.138  11.002   3.465
35178SOL    HW1 7541   1.054  11.045   3.481
35178SOL    HW2 7542   1.127  10.958   3.380
35179SOL     OW 7543   2.996   9.378   4.839
35179SOL    HW1 7544   2.961   9.379   4.749
35179SOL    HW2 7545   3.089   9.398   4.828
35180SOL     OW 7546   8.327   8.654   4.785
35180SOL    HW1 7547   8.268   8.727   4.769
35180SOL    HW2 7548   8.411   8.683   4.750
35181SOL     OW 7549   5.398   9.092   0.395
35181SOL    HW1 7550   5.389   9.123   0.485
35181SOL    HW2 7551   5.324   9.131   0.348
35182SOL     OW 7552   8.706   7.054   0.765
35182SOL    HW1 7553   8.734   7.124   0.823
35182SOL    HW2 7554   8.743   6.974   0.803
35183SOL     OW 7555   5.354   0.559   3.194
35183SOL    HW1 7556   5.426   0.557   3.131
35183SOL    HW2 7557   5.281   0.518   3.147
35184SOL     OW 7558   9.001   5.467   3.239
35184SOL    HW1 7559   9.048   5.443   3.319
35184SOL    HW2 7560   9.015   5.393   3.180
35185SOL     OW 7561   9.106   4.804   5.469
35185SOL    HW1 7562   9.106   4.737   5.400
35185SOL    HW2 7563   9.181   4.782   5.524
35186SOL     OW 7564   0.899   9.052  10.592
35186SOL    HW1 7565   0.902   9.015  10.503
35186SOL    HW2 7566   0.807   9.044  10.618
35187SOL     OW 7567   0.310   2.974   2.573
35187SOL    HW1 7568   0.343   3.004   2.488
35187SOL    HW2 7569   0.388   2.952   2.623
35188SOL     OW 7570   7.529   5.287   9.476
35188SOL    HW1 7571   7.530   5.192   9.492
35188SOL    HW2 7572   7.578   5.324   9.549
35189SOL     OW 7573   0.593   9.941   1.827
35189SOL    HW1 7574   0.597   9.920   1.920
35189SOL    HW2 7575   0.628  10.030   1.821
35190SOL     OW 7576   6.230   8.939   1.886
35190SOL    HW1 7577   6.326   8.941   1.890
35190SOL    HW2 7578   6.207   9.014   1.832
35191SOL     OW 7579  10.263   6.657   4.910
35191SOL    HW1 7580  10.203   6.624   4.977
35191SOL    HW2 7581  10.210   6.661   4.830
35192SOL     OW 7582   5.094   1.251   7.048
35192SOL    HW1 7583   5.061   1.165   7.074
35192SOL    HW2 7584   5.187   1.248   7.069
35193SOL     OW 7585   8.694   5.880   6.959
35193SOL    HW1 7586   8.618   5.859   7.012
35193SOL    HW2 7587   8.723   5.965   6.990
35194SOL     OW 7588   8.398   8.666  10.228
35194SOL    HW1 7589   8.357   8.711  10.154
35194SOL    HW2 7590   8.490   8.659  10.204
35195SOL     OW 7591   9.819   9.497   3.288
35195SOL    HW1 7592   9.755   9.495   3.359
35195SOL    HW2 7593   9.798   9.420   3.234
35196SOL     OW 7594   1.342   0.138   9.249
35196SOL    HW1 7595   1.357   0.188   9.329
35196SOL    HW2 7596   1.282   0.068   9.275
35197SOL     OW 7597   2.710   9.209   9.845
35197SOL    HW1 7598   2.631   9.260   9.832
35197SOL    HW2 7599   2.717   9.200   9.940
35198SOL     OW 7600   9.720   2.208   9.717
35198SOL    HW1 7601   9.665   2.285   9.729
35198SOL    HW2 7602   9.658   2.135   9.707
35199SOL     OW 7603   4.076  10.479   2.373
35199SOL    HW1 7604   4.118  10.487   2.458
35199SOL    HW2 7605   3.997  10.428   2.390
35200SOL     OW 7606   3.789   6.078  10.489
35200SOL    HW1 7607   3.819   6.027  10.414
35200SOL    HW2 7608   3.851   6.057  10.559
35201SOL     OW 7609   3.027   7.827   8.982
35201SOL    HW1 7610   2.978   7.818   8.900
35201SOL    HW2 7611   3.059   7.917   8.981
35202SOL     OW 7612   9.477   7.977   7.955
35202SOL    HW1 7613   9.386   7.968   7.984
35202SOL    HW2 7614   9.511   7.887   7.955
35203SOL     OW 7615   7.427   6.822  10.415
35203SOL    HW1 7616   7.472   6.758  10.360
35203SOL    HW2 7617   7.334   6.800  10.407
35204SOL     OW 7618   0.577   9.383   2.880
35204SOL    HW1 7619   0.550   9.455   2.935
35204SOL    HW2 7620   0.496   9.348   2.844
35205SOL     OW 7621  10.753   3.409  10.177
35205SOL    HW1 7622  10.702   3.348  10.230
35205SOL    HW2 7623  10.709   3.409  10.092
35206SOL     OW 7624   7.794   1.540   8.297
35206SOL    HW1 7625   7.713   1.579   8.328
35206SOL    HW2 7626   7.789   1.449   8.326
35207SOL     OW 7627  10.957   6.065   8.607
35207SOL    HW1 7628  11.003   6.079   8.524
35207SOL    HW2 7629  10.943   6.153   8.642
35208SOL     OW 7630   5.775   2.206   3.709
35208SOL    HW1 7631   5.726   2.234   3.631
35208SOL    HW2 7632   5.710   2.163   3.764
35209SOL     OW 7633   8.866   8.518   1.942
35209SOL    HW1 7634   8.822   8.433   1.936
35209SOL    HW2 7635   8.814   8.576   1.886
35210SOL     OW 7636   7.405   8.027   5.353
35210SOL    HW1 7637   7.488   8.059   5.316
35210SOL    HW2 7638   7.409   7.932   5.343
35211SOL     OW 7639  11.089   3.469   4.542
35211SOL    HW1 7640  11.016   3.510   4.496
35211SOL    HW2 7641  11.048   3.403   4.598
35212SOL     OW 7642   8.412  10.220   2.102
35212SOL    HW1 7643   8.470  10.218   2.025
35212SOL    HW2 7644   8.374  10.308   2.101
35213SOL     OW 7645  10.234   6.540   4.451
35213SOL    HW1 7646  10.268   6.603   4.387
35213SOL    HW2 7647  10.171   6.589   4.503
35214SOL     OW 7648   0.324   2.116   7.262
35214SOL    HW1 7649   0.287   2.029   7.281
35214SOL    HW2 7650   0.408   2.097   7.220
35215SOL     OW 7651   1.782   7.912   0.525
35215SOL    HW1 7652   1.871   7.947   0.520
35215SOL    HW2 7653   1.786   7.847   0.595
35216SOL     OW 7654   7.889   5.248   2.316
35216SOL    HW1 7655   7.860   5.158   2.331
35216SOL    HW2 7656   7.839   5.277   2.239
35217SOL     OW 7657   4.441   5.576   3.925
35217SOL    HW1 7658   4.522   5.582   3.873
35217SOL    HW2 7659   4.432   5.662   3.965
35218SOL     OW 7660  10.591   8.496  10.841
35218SOL    HW1 7661  10.661   8.440  10.875
35218SOL    HW2 7662  10.615   8.584  10.868
35219SOL     OW 7663   7.359   0.977  10.202
35219SOL    HW1 7664   7.320   1.063  10.190
35219SOL    HW2 7665   7.427   0.990  10.268
35220SOL     OW 7666   1.989   9.244   3.769
35220SOL    HW1 7667   1.904   9.201   3.781
35220SOL    HW2 7668   1.968   9.326   3.725
35221SOL     OW 7669   8.356   6.020   5.941
35221SOL    HW1 7670   8.405   5.993   6.019
35221SOL    HW2 7671   8.335   5.937   5.896
35222SOL     OW 7672  10.689   6.535   8.274
35222SOL    HW1 7673  10.609   6.551   8.323
35222SOL    HW2 7674  10.722   6.452   8.309
35223SOL     OW 7675   3.392   2.692   9.242
35223SOL    HW1 7676   3.331   2.703   9.169
35223SOL    HW2 7677   3.401   2.779   9.279
35224SOL     OW 7678   1.791   6.423   2.223
35224SOL    HW1 7679   1.862   6.486   2.208
35224SOL    HW2 7680   1.741   6.423   2.141
35225SOL     OW 7681   9.240   0.660   8.976
35225SOL    HW1 7682   9.192   0.695   8.901
35225SOL    HW2 7683   9.294   0.590   8.939
35226SOL     OW 7684   1.224  10.222   1.324
35226SOL    HW1 7685   1.135  10.189   1.309
35226SOL    HW2 7686   1.246  10.194   1.413
35227SOL     OW 7687   4.752   0.327   5.916
35227SOL    HW1 7688   4.840   0.335   5.878
35227SOL    HW2 7689   4.712   0.255   5.867
35228SOL     OW 7690   0.170   8.779   4.536
35228SOL    HW1 7691   0.098   8.752   4.478
35228SOL    HW2 7692   0.244   8.726   4.507
35229SOL     OW 7693   7.334   0.276   7.529
35229SOL    HW1 7694   7.347   0.209   7.461
35229SOL    HW2 7695   7.384   0.351   7.497
35230SOL     OW 7696   8.734  10.633   2.570
35230SOL    HW1 7697   8.772  10.579   2.501
35230SOL    HW2 7698   8.693  10.571   2.630
35231SOL     OW 7699   0.392   1.002   3.124
35231SOL    HW1 7700   0.467   0.992   3.182
35231SOL    HW2 7701   0.361   1.091   3.139
35232SOL     OW 7702  11.019   1.854   0.535
35232SOL    HW1 7703  11.065   1.916   0.591
35232SOL    HW2 7704  11.029   1.890   0.447
35233SOL     OW 7705   6.501   9.255   1.309
35233SOL    HW1 7706   6.415   9.275   1.344
35233SOL    HW2 7707   6.561   9.270   1.382
35234SOL     OW 7708   9.912   7.974   2.125
35234SOL    HW1 7709   9.992   8.001   2.170
35234SOL    HW2 7710   9.842   8.021   2.169
35235SOL     OW 7711   9.651   1.767   3.539
35235SOL    HW1 7712   9.585   1.822   3.580
35235SOL    HW2 7713   9.732   1.817   3.547
35236SOL     OW 7714   9.164   1.501  10.018
35236SOL    HW1 7715   9.123   1.444   9.952
35236SOL    HW2 7716   9.150   1.590   9.985
35237SOL     OW 7717  10.652   6.523   8.016
35237SOL    HW1 7718  10.677   6.439   7.977
35237SOL    HW2 7719  10.678   6.515   8.107
35238SOL     OW 7720   3.762  10.503   7.711
35238SOL    HW1 7721   3.739  10.483   7.801
35238SOL    HW2 7722   3.712  10.582   7.690
35239SOL     OW 7723  10.062   0.126   0.775
35239SOL    HW1 7724  10.136   0.105   0.717
35239SOL    HW2 7725   9.997   0.059   0.754
35240SOL     OW 7726   1.129  10.111   5.626
35240SOL    HW1 7727   1.155  10.049   5.694
35240SOL    HW2 7728   1.182  10.086   5.550
35241SOL     OW 7729   4.799   2.571  10.335
35241SOL    HW1 7730   4.846   2.654  10.327
35241SOL    HW2 7731   4.839   2.527  10.410
35242SOL     OW 7732   6.195   4.657   7.810
35242SOL    HW1 7733   6.254   4.583   7.822
35242SOL    HW2 7734   6.213   4.715   7.884
35243SOL     OW 7735   9.506   8.296   3.648
35243SOL    HW1 7736   9.590   8.286   3.692
35243SOL    HW2 7737   9.519   8.368   3.587
35244SOL     OW 7738   5.680   1.702   3.437
35244SOL    HW1 7739   5.682   1.760   3.512
35244SOL    HW2 7740   5.663   1.615   3.474
35245SOL     OW 7741  10.438   7.756   3.763
35245SOL    HW1 7742  10.450   7.729   3.854
35245SOL    HW2 7743  10.389   7.837   3.768
35246SOL     OW 7744   9.813   3.955   3.169
35246SOL    HW1 7745   9.765   3.920   3.094
35246SOL    HW2 7746   9.754   4.019   3.207
35247SOL     OW 7747  10.140   9.758   3.014
35247SOL    HW1 7748  10.154   9.690   3.080
35247SOL    HW2 7749  10.086   9.715   2.947
35248SOL     OW 7750   9.198   6.939   3.538
35248SOL    HW1 7751   9.220   6.847   3.554
35248SOL    HW2 7752   9.165   6.971   3.622
35249SOL     OW 7753   6.538   7.254   1.832
35249SOL    HW1 7754   6.528   7.254   1.927
35249SOL    HW2 7755   6.466   7.308   1.800
35250SOL     OW 7756   8.590   0.528   9.032
35250SOL    HW1 7757   8.552   0.466   8.970
35250SOL    HW2 7758   8.597   0.479   9.114
35251SOL     OW 7759   1.114   9.925   2.193
35251SOL    HW1 7760   1.075   9.924   2.105
35251SOL    HW2 7761   1.040   9.931   2.252
35252SOL     OW 7762   9.589  10.367   5.629
35252SOL    HW1 7763   9.679  10.395   5.610
35252SOL    HW2 7764   9.539  10.395   5.552
35253SOL     OW 7765   8.108   6.940   2.516
35253SOL    HW1 7766   8.131   7.022   2.559
35253SOL    HW2 7767   8.192   6.902   2.490
35254SOL     OW 7768   6.335  11.005   6.407
35254SOL    HW1 7769   6.398  11.064   6.365
35254SOL    HW2 7770   6.250  11.047   6.393
35255SOL     OW 7771   5.525   5.923   8.643
35255SOL    HW1 7772   5.528   5.827   8.642
35255SOL    HW2 7773   5.432   5.944   8.635
35256SOL     OW 7774   3.894   5.939   5.286
35256SOL    HW1 7775   3.976   5.975   5.320
35256SOL    HW2 7776   3.851   5.901   5.362
35257SOL     OW 7777   3.312   0.906   0.154
35257SOL    HW1 7778   3.334   0.815   0.177
35257SOL    HW2 7779   3.396   0.951   0.149
35258SOL     OW 7780   2.915   9.502   9.985
35258SOL    HW1 7781   2.851   9.533  10.049
35258SOL    HW2 7782   2.865   9.489   9.904
35259SOL     OW 7783  10.973   3.924  10.931
35259SOL    HW1 7784  11.003   3.971  10.853
35259SOL    HW2 7785  10.940   3.992  10.989
35260SOL     OW 7786   0.083   9.151   8.250
35260SOL    HW1 7787   0.155   9.137   8.189
35260SOL    HW2 7788   0.014   9.190   8.196
35261SOL     OW 7789   7.915   0.307   8.766
35261SOL    HW1 7790   7.908   0.381   8.826
35261SOL    HW2 7791   7.882   0.232   8.816
35262SOL     OW 7792   6.215   1.129  10.484
35262SOL    HW1 7793   6.122   1.105  10.482
35262SOL    HW2 7794   6.217   1.211  10.532
35263SOL     OW 7795   6.655   8.947  11.037
35263SOL    HW1 7796   6.746   8.967  11.015
35263SOL    HW2 7797   6.648   8.852  11.027
35264SOL     OW 7798   7.024   1.857  11.077
35264SOL    HW1 7799   7.115   1.848  11.107
35264SOL    HW2 7800   6.995   1.767  11.061
35265SOL     OW 7801   9.932   9.027   1.733
35265SOL    HW1 7802   9.842   9.010   1.761
35265SOL    HW2 7803   9.929   9.022   1.637
35266SOL     OW 7804   6.935   8.144   3.051
35266SOL    HW1 7805   6.895   8.152   3.137
35266SOL    HW2 7806   6.888   8.207   2.996
35267SOL     OW 7807   4.080   8.467   7.851
35267SOL    HW1 7808   4.152   8.526   7.874
35267SOL    HW2 7809   4.007   8.494   7.907
35268SOL     OW 7810   6.759   6.341   3.799
35268SOL    HW1 7811   6.792   6.430   3.806
35268SOL    HW2 7812   6.705   6.329   3.877
35269SOL     OW 7813   9.219   7.728   9.706
35269SOL    HW1 7814   9.172   7.709   9.625
35269SOL    HW2 7815   9.297   7.673   9.702
35270SOL     OW 7816  10.126  10.377   0.463
35270SOL    HW1 7817  10.089  10.361   0.376
35270SOL    HW2 7818  10.080  10.454   0.495
35271SOL     OW 7819   8.028   8.201   1.723
35271SOL    HW1 7820   8.041   8.118   1.677
35271SOL    HW2 7821   7.966   8.180   1.793
35272SOL     OW 7822   9.244   6.214   4.176
35272SOL    HW1 7823   9.261   6.288   4.233
35272SOL    HW2 7824   9.202   6.149   4.232
35273SOL     OW 7825   2.191   9.362   2.714
35273SOL    HW1 7826   2.220   9.352   2.804
35273SOL    HW2 7827   2.096   9.371   2.720
35274SOL     OW 7828   6.340   5.063  10.511
35274SOL    HW1 7829   6.314   5.140  10.461
35274SOL    HW2 7830   6.317   5.084  10.601
35275SOL     OW 7831  10.415   7.530   2.133
35275SOL    HW1 7832  10.398   7.443   2.095
35275SOL    HW2 7833  10.341   7.545   2.192
35276SOL     OW 7834   8.972  10.006   2.622
35276SOL    HW1 7835   8.980   9.969   2.534
35276SOL    HW2 7836   9.039  10.074   2.625
35277SOL     OW 7837   2.265  10.247   9.491
35277SOL    HW1 7838   2.242  10.322   9.546
35277SOL    HW2 7839   2.201  10.249   9.419
35278SOL     OW 7840   9.577   8.130   1.036
35278SOL    HW1 7841   9.635   8.056   1.016
35278SOL    HW2 7842   9.551   8.116   1.127
35279SOL     OW 7843  10.357   5.963   8.155
35279SOL    HW1 7844  10.447   5.995   8.147
35279SOL    HW2 7845  10.326   5.999   8.238
35280SOL     OW 7846   8.593   9.643   2.171
35280SOL    HW1 7847   8.559   9.677   2.088
35280SOL    HW2 7848   8.659   9.706   2.198
35281SOL     OW 7849   2.883   8.765   7.698
35281SOL    HW1 7850   2.896   8.836   7.635
35281SOL    HW2 7851   2.947   8.698   7.673
35282SOL     OW 7852   8.535   6.416   0.679
35282SOL    HW1 7853   8.601   6.456   0.622
35282SOL    HW2 7854   8.560   6.323   0.682
35283SOL     OW 7855   8.094   3.673   2.574
35283SOL    HW1 7856   8.146   3.720   2.509
35283SOL    HW2 7857   8.072   3.738   2.640
35284SOL     OW 7858   7.167   5.975   7.526
35284SOL    HW1 7859   7.084   5.982   7.573
35284SOL    HW2 7860   7.231   6.018   7.583
35285SOL     OW 7861   9.676  10.021  10.877
35285SOL    HW1 7862   9.589  10.061  10.879
35285SOL    HW2 7863   9.664   9.941  10.826
35286SOL     OW 7864   2.005   2.986   1.620
35286SOL    HW1 7865   1.989   2.919   1.687
35286SOL    HW2 7866   2.087   2.959   1.578
35287SOL     OW 7867   7.631  10.552   5.319
35287SOL    HW1 7868   7.561  10.506   5.365
35287SOL    HW2 7869   7.707  10.494   5.327
35288SOL     OW 7870  10.136   4.609   6.574
35288SOL    HW1 7871  10.065   4.602   6.510
35288SOL    HW2 7872  10.163   4.700   6.570
35289SOL     OW 7873   1.957   6.455  10.711
35289SOL    HW1 7874   1.949   6.368  10.671
35289SOL    HW2 7875   2.044   6.485  10.684
35290SOL     OW 7876   1.584   5.909   5.152
35290SOL    HW1 7877   1.641   5.899   5.076
35290SOL    HW2 7878   1.605   5.834   5.208
35291SOL     OW 7879   4.863   7.046   3.397
35291SOL    HW1 7880   4.919   7.053   3.474
35291SOL    HW2 7881   4.900   7.109   3.335
35292SOL     OW 7882   9.858   2.192   3.599
35292SOL    HW1 7883   9.937   2.195   3.654
35292SOL    HW2 7884   9.800   2.257   3.636
35293SOL     OW 7885   0.838   1.780   9.962
35293SOL    HW1 7886   0.810   1.693   9.991
35293SOL    HW2 7887   0.798   1.790   9.875
35294SOL     OW 7888   2.584   1.018   9.305
35294SOL    HW1 7889   2.590   0.941   9.361
35294SOL    HW2 7890   2.506   1.064   9.336
35295SOL     OW 7891   5.965   9.459   3.669
35295SOL    HW1 7892   6.037   9.522   3.669
35295SOL    HW2 7893   5.903   9.493   3.604
35296SOL     OW 7894   2.109   1.070   6.322
35296SOL    HW1 7895   2.119   0.986   6.366
35296SOL    HW2 7896   2.071   1.047   6.237
35297SOL     OW 7897   8.889   1.910   5.565
35297SOL    HW1 7898   8.971   1.862   5.576
35297SOL    HW2 7899   8.826   1.863   5.620
35298SOL     OW 7900  10.029   6.329   8.926
35298SOL    HW1 7901   9.959   6.382   8.888
35298SOL    HW2 7902  10.092   6.392   8.960
35299SOL     OW 7903  10.837   8.029   3.833
35299SOL    HW1 7904  10.830   8.102   3.771
35299SOL    HW2 7905  10.926   7.996   3.821
35300SOL     OW 7906   0.154   8.903   1.832
35300SOL    HW1 7907   0.060   8.919   1.827
35300SOL    HW2 7908   0.176   8.916   1.924
35301SOL     OW 7909   1.726   4.640   7.573
35301SOL    HW1 7910   1.679   4.607   7.496
35301SOL    HW2 7911   1.817   4.613   7.559
35302SOL     OW 7912  10.153   6.520   8.378
35302SOL    HW1 7913  10.248   6.522   8.389
35302SOL    HW2 7914  10.119   6.575   8.448
35303SOL     OW 7915   9.903   1.212   9.472
35303SOL    HW1 7916   9.974   1.213   9.408
35303SOL    HW2 7917   9.840   1.149   9.436
35304SOL     OW 7918   8.125   4.313   7.419
35304SOL    HW1 7919   8.185   4.340   7.349
35304SOL    HW2 7920   8.181   4.295   7.494
35305SOL     OW 7921   6.825   2.715   3.175
35305SOL    HW1 7922   6.900   2.680   3.127
35305SOL    HW2 7923   6.842   2.692   3.266
35306SOL     OW 7924   7.530   2.748   2.785
35306SOL    HW1 7925   7.549   2.763   2.692
35306SOL    HW2 7926   7.437   2.769   2.794
35307SOL     OW 7927   5.040   0.562   5.340
35307SOL    HW1 7928   5.009   0.638   5.291
35307SOL    HW2 7929   5.131   0.582   5.362
35308SOL     OW 7930   1.330   8.437   2.099
35308SOL    HW1 7931   1.362   8.456   2.187
35308SOL    HW2 7932   1.390   8.484   2.041
35309SOL     OW 7933   5.144   1.342   6.447
35309SOL    HW1 7934   5.186   1.259   6.425
35309SOL    HW2 7935   5.122   1.334   6.540
35310SOL     OW 7936   9.402   6.524   8.547
35310SOL    HW1 7937   9.358   6.565   8.621
35310SOL    HW2 7938   9.483   6.574   8.536
35311SOL     OW 7939   1.084   1.936   4.590
35311SOL    HW1 7940   1.006   1.921   4.643
35311SOL    HW2 7941   1.065   2.016   4.541
35312SOL     OW 7942   5.751  10.159   8.119
35312SOL    HW1 7943   5.692  10.101   8.070
35312SOL    HW2 7944   5.830  10.106   8.131
35313SOL     OW 7945   7.341   8.825   9.866
35313SOL    HW1 7946   7.355   8.733   9.888
35313SOL    HW2 7947   7.411   8.871   9.911
35314SOL     OW 7948   4.074   9.097   6.774
35314SOL    HW1 7949   4.038   9.009   6.759
35314SOL    HW2 7950   4.086   9.102   6.868
35315SOL     OW 7951   1.791   8.506   2.539
35315SOL    HW1 7952   1.731   8.550   2.479
35315SOL    HW2 7953   1.827   8.433   2.487
35316SOL     OW 7954   6.307  10.216   3.085
35316SOL    HW1 7955   6.238  10.215   3.151
35316SOL    HW2 7956   6.268  10.173   3.008
35317SOL     OW 7957   0.559   2.872   0.331
35317SOL    HW1 7958   0.574   2.914   0.415
35317SOL    HW2 7959   0.640   2.824   0.313
35318SOL     OW 7960   6.536   6.142   4.837
35318SOL    HW1 7961   6.563   6.072   4.777
35318SOL    HW2 7962   6.508   6.096   4.916
35319SOL     OW 7963  10.599   6.200   0.185
35319SOL    HW1 7964  10.623   6.107   0.185
35319SOL    HW2 7965  10.548   6.212   0.105
35320SOL     OW 7966   8.954  10.944   7.233
35320SOL    HW1 7967   9.007  10.943   7.312
35320SOL    HW2 7968   8.930  10.852   7.218
35321SOL     OW 7969   9.772   2.211  10.597
35321SOL    HW1 7970   9.835   2.204  10.669
35321SOL    HW2 7971   9.814   2.270  10.534
35322SOL     OW 7972   6.023   0.434   3.105
35322SOL    HW1 7973   6.050   0.403   3.018
35322SOL    HW2 7974   6.103   0.429   3.158
35323SOL     OW 7975   5.187   5.656   5.095
35323SOL    HW1 7976   5.198   5.692   5.182
35323SOL    HW2 7977   5.257   5.696   5.043
35324SOL     OW 7978   1.460   9.077   9.552
35324SOL    HW1 7979   1.387   9.018   9.532
35324SOL    HW2 7980   1.419   9.151   9.595
35325SOL     OW 7981   9.261   3.081   5.123
35325SOL    HW1 7982   9.168   3.079   5.103
35325SOL    HW2 7983   9.277   2.998   5.169
35326SOL     OW 7984  10.411   7.720   6.457
35326SOL    HW1 7985  10.395   7.793   6.398
35326SOL    HW2 7986  10.392   7.642   6.404
35327SOL     OW 7987   5.671   2.994   0.634
35327SOL    HW1 7988   5.761   2.986   0.667
35327SOL    HW2 7989   5.642   3.080   0.662
35328SOL     OW 7990   9.242   8.285   4.976
35328SOL    HW1 7991   9.276   8.363   4.932
35328SOL    HW2 7992   9.197   8.236   4.906
35329SOL     OW 7993   6.028   0.774   3.601
35329SOL    HW1 7994   6.109   0.722   3.601
35329SOL    HW2 7995   6.008   0.787   3.693
35330SOL     OW 7996   2.613   1.240  11.019
35330SOL    HW1 7997   2.637   1.202  10.934
35330SOL    HW2 7998   2.524   1.273  11.006
35331SOL     OW 7999   0.146   6.859   1.238
35331SOL    HW1 8000   0.223   6.915   1.230
35331SOL    HW2 8001   0.143   6.835   1.330
35332SOL     OW 8002   6.582   6.537   1.497
35332SOL    HW1 8003   6.536   6.453   1.497
35332SOL    HW2 8004   6.610   6.549   1.406
35333SOL     OW 8005  11.092   2.783   3.245
35333SOL    HW1 8006  11.029   2.712   3.232
35333SOL    HW2 8007  11.141   2.785   3.162
35334SOL     OW 8008   9.387  10.857   8.064
35334SOL    HW1 8009   9.310  10.865   8.008
35334SOL    HW2 8010   9.449  10.921   8.028
35335SOL     OW 8011  10.312   5.806   9.279
35335SOL    HW1 8012  10.281   5.896   9.284
35335SOL    HW2 8013  10.393   5.811   9.228
35336SOL     OW 8014   6.342   1.823   3.099
35336SOL    HW1 8015   6.297   1.906   3.112
35336SOL    HW2 8016   6.276   1.757   3.121
35337SOL     OW 8017   8.712   9.295   2.784
35337SOL    HW1 8018   8.681   9.383   2.766
35337SOL    HW2 8019   8.805   9.305   2.803
35338SOL     OW 8020  10.113   3.228   1.926
35338SOL    HW1 8021  10.048   3.280   1.878
35338SOL    HW2 8022  10.192   3.232   1.872
35339SOL     OW 8023   2.557   7.169  10.041
35339SOL    HW1 8024   2.617   7.159   9.967
35339SOL    HW2 8025   2.512   7.252  10.024
35340SOL     OW 8026  10.079   0.784   7.151
35340SOL    HW1 8027  10.121   0.863   7.185
35340SOL    HW2 8028  10.113   0.776   7.061
35341SOL     OW 8029   9.609   8.430   2.297
35341SOL    HW1 8030   9.668   8.449   2.370
35341SOL    HW2 8031   9.562   8.351   2.324
35342SOL     OW 8032   1.695   9.710   1.192
35342SOL    HW1 8033   1.707   9.751   1.278
35342SOL    HW2 8034   1.782   9.712   1.152
35343SOL     OW 8035   8.169   1.471   0.130
35343SOL    HW1 8036   8.139   1.442   0.044
35343SOL    HW2 8037   8.140   1.402   0.190
35344SOL     OW 8038   1.355   8.729   3.385
35344SOL    HW1 8039   1.427   8.768   3.336
35344SOL    HW2 8040   1.280   8.736   3.326
35345SOL     OW 8041   8.887   8.422   1.509
35345SOL    HW1 8042   8.848   8.356   1.451
35345SOL    HW2 8043   8.831   8.422   1.587
35346SOL     OW 8044   6.045   8.903   7.120
35346SOL    HW1 8045   6.140   8.910   7.131
35346SOL    HW2 8046   6.034   8.832   7.057
35347SOL     OW 8047   4.909   1.546   5.173
35347SOL    HW1 8048   4.970   1.472   5.176
35347SOL    HW2 8049   4.963   1.621   5.150
35348SOL     OW 8050   7.285   2.798   3.607
35348SOL    HW1 8051   7.297   2.710   3.642
35348SOL    HW2 8052   7.196   2.798   3.572
35349SOL     OW 8053   5.568   2.810   0.198
35349SOL    HW1 8054   5.535   2.849   0.117
35349SOL    HW2 8055   5.562   2.880   0.263
35350SOL     OW 8056  10.046  10.954   2.325
35350SOL    HW1 8057   9.971  10.993   2.279
35350SOL    HW2 8058  10.090  10.902   2.258
35351SOL     OW 8059   2.482  10.877   4.486
35351SOL    HW1 8060   2.411  10.901   4.545
35351SOL    HW2 8061   2.560  10.874   4.542
35352SOL     OW 8062   9.585   7.056   3.894
35352SOL    HW1 8063   9.673   7.064   3.857
35352SOL    HW2 8064   9.558   7.146   3.911
35353SOL     OW 8065   2.211   1.201   5.018
35353SOL    HW1 8066   2.153   1.125   5.007
35353SOL    HW2 8067   2.231   1.228   4.928
35354SOL     OW 8068   7.119   8.021   8.628
35354SOL    HW1 8069   7.043   7.978   8.589
35354SOL    HW2 8070   7.122   8.107   8.586
35355SOL     OW 8071   8.297   8.142   4.605
35355SOL    HW1 8072   8.341   8.060   4.582
35355SOL    HW2 8073   8.340   8.171   4.685
35356SOL     OW 8074   5.676   1.355   7.848
35356SOL    HW1 8075   5.765   1.389   7.853
35356SOL    HW2 8076   5.660   1.343   7.754
35357SOL     OW 8077   9.326   4.865   3.260
35357SOL    HW1 8078   9.240   4.823   3.257
35357SOL    HW2 8079   9.308   4.955   3.285
35358SOL     OW 8080   2.640   9.656   3.152
35358SOL    HW1 8081   2.718   9.625   3.106
35358SOL    HW2 8082   2.624   9.743   3.116
35359SOL     OW 8083  10.879   7.970   6.295
35359SOL    HW1 8084  10.844   7.903   6.235
35359SOL    HW2 8085  10.970   7.981   6.267
35360SOL     OW 8086   1.584   9.448   1.706
35360SOL    HW1 8087   1.496   9.431   1.740
35360SOL    HW2 8088   1.570   9.476   1.615
35361SOL     OW 8089   8.906   5.103  10.809
35361SOL    HW1 8090   8.836   5.093  10.745
35361SOL    HW2 8091   8.986   5.079  10.761
35362SOL     OW 8092   8.752   3.762   2.558
35362SOL    HW1 8093   8.665   3.745   2.594
35362SOL    HW2 8094   8.744   3.739   2.465
35363SOL     OW 8095   1.863  10.528   3.820
35363SOL    HW1 8096   1.817  10.604   3.784
35363SOL    HW2 8097   1.956  10.548   3.808
35364SOL     OW 8098   1.932   2.603   4.757
35364SOL    HW1 8099   1.861   2.568   4.811
35364SOL    HW2 8100   2.011   2.563   4.793
35365SOL     OW 8101   8.665   5.190   3.235
35365SOL    HW1 8102   8.657   5.225   3.146
35365SOL    HW2 8103   8.616   5.251   3.289
35366SOL     OW 8104   2.939  10.473   1.102
35366SOL    HW1 8105   2.993  10.433   1.170
35366SOL    HW2 8106   2.997  10.479   1.026
35367SOL     OW 8107   7.802   2.674   1.133
35367SOL    HW1 8108   7.863   2.609   1.169
35367SOL    HW2 8109   7.737   2.688   1.202
35368SOL     OW 8110   2.752   9.560   7.053
35368SOL    HW1 8111   2.797   9.496   6.997
35368SOL    HW2 8112   2.789   9.644   7.027
35369SOL     OW 8113   0.841   1.012  10.651
35369SOL    HW1 8114   0.848   1.094  10.699
35369SOL    HW2 8115   0.802   1.036  10.567
35370SOL     OW 8116   7.261   5.965   7.182
35370SOL    HW1 8117   7.185   5.917   7.215
35370SOL    HW2 8118   7.268   5.939   7.090
35371SOL     OW 8119  10.340   7.295   2.010
35371SOL    HW1 8120  10.274   7.230   1.985
35371SOL    HW2 8121  10.422   7.262   1.972
35372SOL     OW 8122   0.053   5.620   6.131
35372SOL    HW1 8123   0.064   5.636   6.224
35372SOL    HW2 8124  -0.017   5.555   6.126
35373SOL     OW 8125   4.338   6.487   9.216
35373SOL    HW1 8126   4.336   6.549   9.143
35373SOL    HW2 8127   4.414   6.432   9.198
35374SOL     OW 8128   0.312   7.832   8.696
35374SOL    HW1 8129   0.365   7.756   8.722
35374SOL    HW2 8130   0.251   7.797   8.631
35375SOL     OW 8131   9.795   5.545   9.602
35375SOL    HW1 8132   9.850   5.612   9.562
35375SOL    HW2 8133   9.814   5.466   9.551
35376SOL     OW 8134   6.243   9.622   9.882
35376SOL    HW1 8135   6.324   9.587   9.844
35376SOL    HW2 8136   6.216   9.691   9.821
35377SOL     OW 8137   0.983   9.933   4.068
35377SOL    HW1 8138   1.009  10.019   4.100
35377SOL    HW2 8139   0.948   9.949   3.980
35378SOL     OW 8140  10.672   7.365   1.760
35378SOL    HW1 8141  10.597   7.401   1.713
35378SOL    HW2 8142  10.747   7.381   1.702
35379SOL     OW 8143  10.184   9.234   9.683
35379SOL    HW1 8144  10.255   9.221   9.620
35379SOL    HW2 8145  10.126   9.297   9.641
35380SOL     OW 8146   4.522  11.087   4.310
35380SOL    HW1 8147   4.470  11.061   4.233
35380SOL    HW2 8148   4.460  11.086   4.382
35381SOL     OW 8149   7.217   5.788  10.574
35381SOL    HW1 8150   7.228   5.879  10.601
35381SOL    HW2 8151   7.276   5.778  10.499
35382SOL     OW 8152   4.652  10.865   3.252
35382SOL    HW1 8153   4.557  10.860   3.265
35382SOL    HW2 8154   4.674  10.957   3.267
35383SOL     OW 8155  10.642   5.555   3.016
35383SOL    HW1 8156  10.558   5.578   3.055
35383SOL    HW2 8157  10.699   5.630   3.033
35384SOL     OW 8158   8.973   8.366   8.501
35384SOL    HW1 8159   8.906   8.431   8.484
35384SOL    HW2 8160   9.029   8.368   8.423
35385SOL     OW 8161   5.724   9.213   2.372
35385SOL    HW1 8162   5.683   9.128   2.357
35385SOL    HW2 8163   5.651   9.273   2.381
35386SOL     OW 8164   6.155   0.373   7.402
35386SOL    HW1 8165   6.090   0.317   7.444
35386SOL    HW2 8166   6.124   0.382   7.311
35387SOL     OW 8167   9.857   7.720   6.641
35387SOL    HW1 8168   9.796   7.775   6.592
35387SOL    HW2 8169   9.849   7.633   6.600
35388SOL     OW 8170   0.534   6.643  10.146
35388SOL    HW1 8171   0.461   6.624  10.086
35388SOL    HW2 8172   0.581   6.715  10.104
35389SOL     OW 8173   6.283   3.444   4.799
35389SOL    HW1 8174   6.259   3.491   4.878
35389SOL    HW2 8175   6.200   3.418   4.760
35390SOL     OW 8176   4.932   9.056   9.859
35390SOL    HW1 8177   4.922   8.968   9.896
35390SOL    HW2 8178   5.013   9.089   9.897
35391SOL     OW 8179   9.119   9.426   8.123
35391SOL    HW1 8180   9.095   9.418   8.215
35391SOL    HW2 8181   9.128   9.335   8.093
35392SOL     OW 8182  10.510   5.670   2.627
35392SOL    HW1 8183  10.583   5.658   2.566
35392SOL    HW2 8184  10.536   5.744   2.681
35393SOL     OW 8185   0.383   6.350   3.215
35393SOL    HW1 8186   0.412   6.262   3.238
35393SOL    HW2 8187   0.385   6.399   3.297
35394SOL     OW 8188   6.653   8.967   4.739
35394SOL    HW1 8189   6.569   8.929   4.714
35394SOL    HW2 8190   6.716   8.896   4.727
35395SOL     OW 8191   0.302   5.664   3.835
35395SOL    HW1 8192   0.280   5.744   3.787
35395SOL    HW2 8193   0.397   5.667   3.845
35396SOL     OW 8194  10.888   9.732   8.163
35396SOL    HW1 8195  10.911   9.651   8.209
35396SOL    HW2 8196  10.810   9.764   8.208
35397SOL     OW 8197   3.725   5.256   7.884
35397SOL    HW1 8198   3.810   5.220   7.912
35397SOL    HW2 8199   3.698   5.313   7.956
35398SOL     OW 8200   7.760   6.699   4.559
35398SOL    HW1 8201   7.665   6.692   4.569
35398SOL    HW2 8202   7.789   6.743   4.639
35399SOL     OW 8203   1.623   1.949   5.556
35399SOL    HW1 8204   1.551   2.003   5.524
35399SOL    HW2 8205   1.611   1.864   5.512
35400SOL     OW 8206  10.054   5.283   6.605
35400SOL    HW1 8207  10.045   5.262   6.512
35400SOL    HW2 8208  10.109   5.213   6.640
35401SOL     OW 8209   1.621   9.147   3.505
35401SOL    HW1 8210   1.642   9.145   3.598
35401SOL    HW2 8211   1.526   9.160   3.502
35402SOL     OW 8212   3.759   6.120   1.807
35402SOL    HW1 8213   3.818   6.049   1.835
35402SOL    HW2 8214   3.805   6.200   1.830
35403SOL     OW 8215   2.713   5.698   1.454
35403SOL    HW1 8216   2.729   5.693   1.548
35403SOL    HW2 8217   2.753   5.780   1.426
35404SOL     OW 8218   6.706   0.554   0.553
35404SOL    HW1 8219   6.682   0.491   0.621
35404SOL    HW2 8220   6.750   0.500   0.486
35405SOL     OW 8221   7.008   8.631   3.682
35405SOL    HW1 8222   6.999   8.601   3.591
35405SOL    HW2 8223   7.100   8.614   3.704
35406SOL     OW 8224   1.953  10.221   6.621
35406SOL    HW1 8225   2.009  10.193   6.693
35406SOL    HW2 8226   1.920  10.139   6.584
35407SOL     OW 8227   9.698   7.357  10.337
35407SOL    HW1 8228   9.722   7.277  10.384
35407SOL    HW2 8229   9.770   7.418  10.355
35408SOL     OW 8230   6.592   5.865  10.072
35408SOL    HW1 8231   6.614   5.894   9.983
35408SOL    HW2 8232   6.522   5.924  10.100
35409SOL     OW 8233   2.768  11.042   1.234
35409SOL    HW1 8234   2.811  11.037   1.148
35409SOL    HW2 8235   2.699  11.108   1.222
35410SOL     OW 8236   2.611   7.319   1.382
35410SOL    HW1 8237   2.658   7.236   1.395
35410SOL    HW2 8238   2.670   7.386   1.416
35411SOL     OW 8239   3.441   3.210   8.904
35411SOL    HW1 8240   3.378   3.264   8.951
35411SOL    HW2 8241   3.391   3.169   8.834
35412SOL     OW 8242   1.487   5.128   0.305
35412SOL    HW1 8243   1.484   5.146   0.211
35412SOL    HW2 8244   1.555   5.061   0.314
35413SOL     OW 8245   9.649   1.517   3.611
35413SOL    HW1 8246   9.623   1.606   3.588
35413SOL    HW2 8247   9.636   1.466   3.530
35414SOL     OW 8248   7.392   7.251   7.441
35414SOL    HW1 8249   7.399   7.317   7.372
35414SOL    HW2 8250   7.470   7.196   7.430
35415SOL     OW 8251   8.176   1.123   1.903
35415SOL    HW1 8252   8.087   1.143   1.875
35415SOL    HW2 8253   8.222   1.099   1.822
35416SOL     OW 8254  10.529   4.197   9.548
35416SOL    HW1 8255  10.518   4.247   9.628
35416SOL    HW2 8256  10.450   4.214   9.497
35417SOL     OW 8257   2.339   1.510   7.689
35417SOL    HW1 8258   2.309   1.504   7.598
35417SOL    HW2 8259   2.324   1.422   7.724
35418SOL     OW 8260   6.677   9.973   0.785
35418SOL    HW1 8261   6.595   9.945   0.745
35418SOL    HW2 8262   6.743   9.957   0.717
35419SOL     OW 8263   3.700   1.927   0.054
35419SOL    HW1 8264   3.667   2.002   0.006
35419SOL    HW2 8265   3.754   1.964   0.124
35420SOL     OW 8266  10.858   7.415   9.329
35420SOL    HW1 8267  10.909   7.334   9.335
35420SOL    HW2 8268  10.874   7.460   9.412
35421SOL     OW 8269   2.331   3.498   4.553
35421SOL    HW1 8270   2.327   3.483   4.458
35421SOL    HW2 8271   2.240   3.507   4.580
35422SOL     OW 8272   9.092   9.791   3.424
35422SOL    HW1 8273   9.149   9.717   3.445
35422SOL    HW2 8274   9.134   9.866   3.466
35423SOL     OW 8275   7.339   0.176   9.711
35423SOL    HW1 8276   7.411   0.225   9.750
35423SOL    HW2 8277   7.272   0.241   9.693
35424SOL     OW 8278   1.722   0.784   4.532
35424SOL    HW1 8279   1.690   0.844   4.599
35424SOL    HW2 8280   1.800   0.826   4.497
35425SOL     OW 8281   9.563   6.884   5.283
35425SOL    HW1 8282   9.509   6.833   5.222
35425SOL    HW2 8283   9.559   6.835   5.365
35426SOL     OW 8284   2.739   0.407   8.969
35426SOL    HW1 8285   2.775   0.347   9.034
35426SOL    HW2 8286   2.812   0.465   8.947
35427SOL     OW 8287   7.785   6.842   3.723
35427SOL    HW1 8288   7.759   6.794   3.801
35427SOL    HW2 8289   7.801   6.931   3.753
35428SOL     OW 8290   5.665   7.084   3.161
35428SOL    HW1 8291   5.594   7.020   3.160
35428SOL    HW2 8292   5.710   7.070   3.077
35429SOL     OW 8293   7.349   5.969   9.117
35429SOL    HW1 8294   7.316   5.911   9.048
35429SOL    HW2 8295   7.345   5.916   9.196
35430SOL     OW 8296   4.807   4.362   6.665
35430SOL    HW1 8297   4.870   4.429   6.691
35430SOL    HW2 8298   4.795   4.376   6.571
35431SOL     OW 8299   6.632   0.580   3.571
35431SOL    HW1 8300   6.606   0.532   3.649
35431SOL    HW2 8301   6.721   0.549   3.553
35432SOL     OW 8302   9.320   8.010   7.137
35432SOL    HW1 8303   9.373   7.969   7.206
35432SOL    HW2 8304   9.327   7.949   7.063
35433SOL     OW 8305   7.096   1.590   0.683
35433SOL    HW1 8306   7.071   1.548   0.600
35433SOL    HW2 8307   7.147   1.666   0.656
35434SOL     OW 8308  10.144   8.072   0.711
35434SOL    HW1 8309  10.116   8.115   0.791
35434SOL    HW2 8310  10.077   8.095   0.647
35435SOL     OW 8311   0.641   8.872  10.273
35435SOL    HW1 8312   0.572   8.818  10.311
35435SOL    HW2 8313   0.597   8.953  10.247
35436SOL     OW 8314   9.408   9.949   7.602
35436SOL    HW1 8315   9.392  10.043   7.607
35436SOL    HW2 8316   9.438   9.934   7.512
35437SOL     OW 8317   1.420   4.553   7.827
35437SOL    HW1 8318   1.413   4.467   7.870
35437SOL    HW2 8319   1.513   4.575   7.833
35438SOL     OW 8320  10.695  10.619   1.241
35438SOL    HW1 8321  10.711  10.691   1.301
35438SOL    HW2 8322  10.621  10.648   1.188
35439SOL     OW 8323  10.763   8.259  10.743
35439SOL    HW1 8324  10.794   8.270  10.832
35439SOL    HW2 8325  10.682   8.208  10.752
35440SOL     OW 8326   8.217   7.309   6.217
35440SOL    HW1 8327   8.245   7.218   6.229
35440SOL    HW2 8328   8.286   7.361   6.259
35441SOL     OW 8329   7.800   2.786   8.179
35441SOL    HW1 8330   7.844   2.825   8.103
35441SOL    HW2 8331   7.828   2.839   8.253
35442SOL     OW 8332   2.216  10.291   0.807
35442SOL    HW1 8333   2.132  10.335   0.796
35442SOL    HW2 8334   2.256  10.333   0.882
35443SOL     OW 8335   3.584   8.356   9.185
35443SOL    HW1 8336   3.675   8.370   9.159
35443SOL    HW2 8337   3.589   8.291   9.255
35444SOL     OW 8338   6.401   8.401   0.885
35444SOL    HW1 8339   6.417   8.430   0.795
35444SOL    HW2 8340   6.410   8.305   0.881
35445SOL     OW 8341  10.099  11.045  10.683
35445SOL    HW1 8342  10.043  11.114  10.718
35445SOL    HW2 8343  10.058  10.964  10.713
35446SOL     OW 8344   1.257   8.385   9.069
35446SOL    HW1 8345   1.203   8.438   9.010
35446SOL    HW2 8346   1.232   8.294   9.049
35447SOL     OW 8347   8.838   7.054   2.537
35447SOL    HW1 8348   8.757   7.086   2.497
35447SOL    HW2 8349   8.809   7.001   2.611
35448SOL     OW 8350  10.304  10.961   7.365
35448SOL    HW1 8351  10.266  11.043   7.397
35448SOL    HW2 8352  10.390  10.957   7.406
35449SOL     OW 8353   7.551   4.626   1.002
35449SOL    HW1 8354   7.493   4.702   1.005
35449SOL    HW2 8355   7.634   4.660   0.968
35450SOL     OW 8356   0.652   6.719   0.449
35450SOL    HW1 8357   0.721   6.693   0.388
35450SOL    HW2 8358   0.680   6.685   0.533
35451SOL     OW 8359  11.050   3.460   2.673
35451SOL    HW1 8360  11.014   3.527   2.730
35451SOL    HW2 8361  10.995   3.383   2.689
35452SOL     OW 8362   3.924   8.360   0.758
35452SOL    HW1 8363   3.967   8.427   0.811
35452SOL    HW2 8364   3.833   8.388   0.753
35453SOL     OW 8365   1.838   0.328   2.053
35453SOL    HW1 8366   1.883   0.381   2.118
35453SOL    HW2 8367   1.898   0.255   2.036
35454SOL     OW 8368   7.812   6.228   2.581
35454SOL    HW1 8369   7.751   6.214   2.653
35454SOL    HW2 8370   7.876   6.157   2.590
35455SOL     OW 8371   8.187   4.352   2.647
35455SOL    HW1 8372   8.179   4.436   2.602
35455SOL    HW2 8373   8.139   4.363   2.729
35456SOL     OW 8374  10.339   5.862   6.149
35456SOL    HW1 8375  10.336   5.952   6.181
35456SOL    HW2 8376  10.352   5.809   6.227
35457SOL     OW 8377   9.210   1.597   1.914
35457SOL    HW1 8378   9.162   1.625   1.836
35457SOL    HW2 8379   9.165   1.517   1.942
35458SOL     OW 8380   6.109   6.841   4.611
35458SOL    HW1 8381   6.086   6.888   4.531
35458SOL    HW2 8382   6.042   6.773   4.618
35459SOL     OW 8383   7.186   3.237   0.014
35459SOL    HW1 8384   7.136   3.162  -0.019
35459SOL    HW2 8385   7.277   3.217  -0.009
35460SOL     OW 8386   6.019   8.892   5.883
35460SOL    HW1 8387   6.073   8.814   5.898
35460SOL    HW2 8388   6.064   8.961   5.931
35461SOL     OW 8389   1.580   7.086   2.478
35461SOL    HW1 8390   1.667   7.047   2.483
35461SOL    HW2 8391   1.585   7.163   2.535
35462SOL     OW 8392   3.248   6.207   4.888
35462SOL    HW1 8393   3.325   6.215   4.831
35462SOL    HW2 8394   3.176   6.192   4.827
35463SOL     OW 8395   0.723   2.343   2.938
35463SOL    HW1 8396   0.761   2.381   3.017
35463SOL    HW2 8397   0.641   2.391   2.925
35464SOL     OW 8398   4.295   6.840   5.846
35464SOL    HW1 8399   4.283   6.926   5.805
35464SOL    HW2 8400   4.311   6.859   5.938
35465SOL     OW 8401   9.311   9.159   1.750
35465SOL    HW1 8402   9.299   9.078   1.800
35465SOL    HW2 8403   9.379   9.137   1.686
35466SOL     OW 8404   2.318   9.988   3.185
35466SOL    HW1 8405   2.318   9.902   3.143
35466SOL    HW2 8406   2.226  10.005   3.204
35467SOL     OW 8407   1.437  11.053   9.638
35467SOL    HW1 8408   1.377  11.024   9.569
35467SOL    HW2 8409   1.459  10.973   9.686
35468SOL     OW 8410   7.101   7.822   3.988
35468SOL    HW1 8411   7.087   7.824   3.893
35468SOL    HW2 8412   7.034   7.880   4.023
35469SOL     OW 8413  10.284   5.714   7.113
35469SOL    HW1 8414  10.246   5.782   7.168
35469SOL    HW2 8415  10.375   5.741   7.100
35470SOL     OW 8416   0.241   6.088   2.596
35470SOL    HW1 8417   0.189   6.078   2.676
35470SOL    HW2 8418   0.251   6.182   2.584
35471SOL     OW 8419  10.155   8.971   2.898
35471SOL    HW1 8420  10.093   8.939   2.963
35471SOL    HW2 8421  10.110   8.959   2.814
35472SOL     OW 8422   8.968   7.758   2.514
35472SOL    HW1 8423   8.961   7.836   2.459
35472SOL    HW2 8424   9.062   7.749   2.531
35473SOL     OW 8425   7.225   3.953   3.167
35473SOL    HW1 8426   7.267   4.016   3.109
35473SOL    HW2 8427   7.294   3.927   3.228
35474SOL     OW 8428   2.307  11.096   8.105
35474SOL    HW1 8429   2.246  11.165   8.131
35474SOL    HW2 8430   2.260  11.047   8.037
35475SOL     OW 8431   9.008   9.008   0.158
35475SOL    HW1 8432   8.962   9.068   0.217
35475SOL    HW2 8433   9.053   9.065   0.096
35476SOL     OW 8434   0.772   4.195   6.705
35476SOL    HW1 8435   0.838   4.129   6.725
35476SOL    HW2 8436   0.804   4.238   6.625
35477SOL     OW 8437  10.738   3.507   5.078
35477SOL    HW1 8438  10.825   3.482   5.047
35477SOL    HW2 8439  10.714   3.437   5.139
35478SOL     OW 8440   8.993   9.567  10.738
35478SOL    HW1 8441   8.999   9.557  10.833
35478SOL    HW2 8442   9.033   9.652  10.720
35479SOL     OW 8443   8.077  10.334  10.161
35479SOL    HW1 8444   8.106  10.276  10.090
35479SOL    HW2 8445   7.983  10.345  10.145
35480SOL     OW 8446   3.715   1.990   0.521
35480SOL    HW1 8447   3.779   1.925   0.551
35480SOL    HW2 8448   3.744   2.012   0.432
35481SOL     OW 8449   4.082   6.154   5.309
35481SOL    HW1 8450   4.020   6.150   5.236
35481SOL    HW2 8451   4.046   6.220   5.368
35482SOL     OW 8452   6.602   6.494  10.351
35482SOL    HW1 8453   6.649   6.442  10.286
35482SOL    HW2 8454   6.653   6.484  10.431
35483SOL     OW 8455  10.752   9.913   2.532
35483SOL    HW1 8456  10.776   9.955   2.614
35483SOL    HW2 8457  10.663   9.881   2.546
35484SOL     OW 8458   4.447   6.381   2.583
35484SOL    HW1 8459   4.445   6.313   2.651
35484SOL    HW2 8460   4.374   6.359   2.525
35485SOL     OW 8461   0.470   8.278   0.763
35485SOL    HW1 8462   0.446   8.196   0.807
35485SOL    HW2 8463   0.389   8.309   0.724
35486SOL     OW 8464  10.690   2.941   0.085
35486SOL    HW1 8465  10.635   2.995   0.142
35486SOL    HW2 8466  10.663   2.964  -0.004
35487SOL     OW 8467  10.442   3.066   2.717
35487SOL    HW1 8468  10.352   3.039   2.735
35487SOL    HW2 8469  10.436   3.158   2.693
35488SOL     OW 8470   6.870   7.530   4.450
35488SOL    HW1 8471   6.919   7.612   4.448
35488SOL    HW2 8472   6.901   7.482   4.373
35489SOL     OW 8473   8.503   5.506   5.020
35489SOL    HW1 8474   8.589   5.547   5.018
35489SOL    HW2 8475   8.444   5.571   4.983
35490SOL     OW 8476   5.904   9.929   7.276
35490SOL    HW1 8477   5.905   9.943   7.370
35490SOL    HW2 8478   5.915  10.016   7.238
35491SOL     OW 8479   0.411   6.193   1.565
35491SOL    HW1 8480   0.436   6.139   1.640
35491SOL    HW2 8481   0.351   6.258   1.601
35492SOL     OW 8482   9.215   8.336   1.974
35492SOL    HW1 8483   9.199   8.390   1.897
35492SOL    HW2 8484   9.293   8.374   2.015
35493SOL     OW 8485   3.972   6.557   0.474
35493SOL    HW1 8486   3.977   6.461   0.482
35493SOL    HW2 8487   4.034   6.578   0.404
35494SOL     OW 8488   8.728   3.173   3.783
35494SOL    HW1 8489   8.683   3.126   3.853
35494SOL    HW2 8490   8.692   3.261   3.787
35495SOL     OW 8491   1.968   1.711   9.787
35495SOL    HW1 8492   2.044   1.689   9.732
35495SOL    HW2 8493   1.975   1.805   9.801
35496SOL     OW 8494  10.464   6.884   5.200
35496SOL    HW1 8495  10.558   6.904   5.203
35496SOL    HW2 8496  10.443   6.883   5.106
35497SOL     OW 8497   9.416  10.745   4.443
35497SOL    HW1 8498   9.408  10.674   4.379
35497SOL    HW2 8499   9.355  10.721   4.513
35498SOL     OW 8500   8.841   4.806   8.076
35498SOL    HW1 8501   8.857   4.727   8.023
35498SOL    HW2 8502   8.886   4.876   8.028
35499SOL     OW 8503   8.009   1.259   8.160
35499SOL    HW1 8504   8.005   1.196   8.232
35499SOL    HW2 8505   8.100   1.288   8.159
35500SOL     OW 8506   8.702   9.114   8.589
35500SOL    HW1 8507   8.689   9.183   8.524
35500SOL    HW2 8508   8.709   9.034   8.537
35501SOL     OW 8509   7.479  10.696   8.369
35501SOL    HW1 8510   7.537  10.702   8.445
35501SOL    HW2 8511   7.505  10.615   8.325
35502SOL     OW 8512   3.128   5.587   1.849
35502SOL    HW1 8513   3.099   5.661   1.902
35502SOL    HW2 8514   3.082   5.511   1.886
35503SOL     OW 8515   8.089   8.943   2.698
35503SOL    HW1 8516   8.141   8.863   2.684
35503SOL    HW2 8517   8.148   9.002   2.744
35504SOL     OW 8518   0.271   7.428   5.049
35504SOL    HW1 8519   0.178   7.427   5.026
35504SOL    HW2 8520   0.272   7.424   5.144
35505SOL     OW 8521  10.430   8.386   1.182
35505SOL    HW1 8522  10.410   8.315   1.120
35505SOL    HW2 8523  10.435   8.464   1.128
35506SOL     OW 8524   3.454   5.062   6.843
35506SOL    HW1 8525   3.391   4.995   6.869
35506SOL    HW2 8526   3.533   5.042   6.894
35507SOL     OW 8527  10.131  10.225   9.348
35507SOL    HW1 8528  10.104  10.168   9.276
35507SOL    HW2 8529  10.111  10.313   9.317
35508SOL     OW 8530   8.143  10.159   0.609
35508SOL    HW1 8531   8.049  10.163   0.626
35508SOL    HW2 8532   8.162  10.065   0.603
35509SOL     OW 8533   8.276   1.706   0.165
35509SOL    HW1 8534   8.240   1.617   0.169
35509SOL    HW2 8535   8.369   1.693   0.146
35510SOL     OW 8536  10.126   3.899   2.822
35510SOL    HW1 8537  10.163   3.814   2.845
35510SOL    HW2 8538  10.178   3.927   2.746
35511SOL     OW 8539   6.781   1.303   5.578
35511SOL    HW1 8540   6.734   1.342   5.651
35511SOL    HW2 8541   6.859   1.357   5.567
35512SOL     OW 8542   9.459   4.336   7.979
35512SOL    HW1 8543   9.468   4.310   8.070
35512SOL    HW2 8544   9.379   4.293   7.949
35513SOL     OW 8545   0.889  10.638   8.999
35513SOL    HW1 8546   0.887  10.731   8.975
35513SOL    HW2 8547   0.844  10.594   8.927
35514SOL     OW 8548   2.258   6.976   6.973
35514SOL    HW1 8549   2.316   7.052   6.967
35514SOL    HW2 8550   2.316   6.901   6.960
35515SOL     OW 8551   8.205   9.134   1.974
35515SOL    HW1 8552   8.205   9.228   1.956
35515SOL    HW2 8553   8.230   9.127   2.066
35516SOL     OW 8554   6.971   9.886   5.210
35516SOL    HW1 8555   6.931   9.908   5.294
35516SOL    HW2 8556   6.926   9.806   5.182
35517SOL     OW 8557   5.984   7.239   7.820
35517SOL    HW1 8558   5.929   7.275   7.889
35517SOL    HW2 8559   6.059   7.298   7.815
35518SOL     OW 8560   8.439   1.752   6.556
35518SOL    HW1 8561   8.397   1.818   6.610
35518SOL    HW2 8562   8.485   1.801   6.488
35519SOL     OW 8563   6.135  11.003   4.323
35519SOL    HW1 8564   6.060  11.032   4.271
35519SOL    HW2 8565   6.165  10.923   4.279
35520SOL     OW 8566   7.806   6.390   6.921
35520SOL    HW1 8567   7.820   6.463   6.860
35520SOL    HW2 8568   7.812   6.311   6.866
35521SOL     OW 8569   7.595   0.524   2.768
35521SOL    HW1 8570   7.522   0.475   2.805
35521SOL    HW2 8571   7.594   0.501   2.675
35522SOL     OW 8572   0.151   2.297  10.638
35522SOL    HW1 8573   0.226   2.305  10.579
35522SOL    HW2 8574   0.186   2.315  10.725
35523SOL     OW 8575   4.889   5.212   8.113
35523SOL    HW1 8576   4.969   5.161   8.098
35523SOL    HW2 8577   4.865   5.245   8.026
35524SOL     OW 8578   4.157   0.468   6.790
35524SOL    HW1 8579   4.205   0.514   6.859
35524SOL    HW2 8580   4.071   0.510   6.789
35525SOL     OW 8581   9.623   6.350   1.555
35525SOL    HW1 8582   9.581   6.352   1.641
35525SOL    HW2 8583   9.675   6.269   1.555
35526SOL     OW 8584  10.330   5.361   6.462
35526SOL    HW1 8585  10.297   5.435   6.513
35526SOL    HW2 8586  10.413   5.337   6.504
35527SOL     OW 8587   4.788   0.738   3.950
35527SOL    HW1 8588   4.724   0.683   3.995
35527SOL    HW2 8589   4.873   0.699   3.972
35528SOL     OW 8590   5.046   6.722   8.177
35528SOL    HW1 8591   4.968   6.669   8.192
35528SOL    HW2 8592   5.035   6.797   8.234
35529SOL     OW 8593   8.425  10.311   5.053
35529SOL    HW1 8594   8.375  10.366   4.993
35529SOL    HW2 8595   8.399  10.340   5.140
35530SOL     OW 8596   9.721   0.752   1.324
35530SOL    HW1 8597   9.689   0.662   1.336
35530SOL    HW2 8598   9.815   0.746   1.342
35531SOL     OW 8599   9.105   1.120   3.408
35531SOL    HW1 8600   9.057   1.127   3.325
35531SOL    HW2 8601   9.111   1.209   3.440
35532SOL     OW 8602   6.964   0.323   1.772
35532SOL    HW1 8603   6.949   0.256   1.839
35532SOL    HW2 8604   7.048   0.299   1.733
35533SOL     OW 8605   0.815   6.038   7.268
35533SOL    HW1 8606   0.809   6.082   7.183
35533SOL    HW2 8607   0.892   5.982   7.260
35534SOL     OW 8608   7.182   6.792   5.048
35534SOL    HW1 8609   7.116   6.783   5.116
35534SOL    HW2 8610   7.256   6.833   5.092
35535SOL     OW 8611  10.891  10.902   4.838
35535SOL    HW1 8612  10.959  10.875   4.776
35535SOL    HW2 8613  10.934  10.900   4.923
35536SOL     OW 8614   7.844   9.181   3.580
35536SOL    HW1 8615   7.798   9.263   3.595
35536SOL    HW2 8616   7.829   9.162   3.487
35537SOL     OW 8617  10.363   5.251   2.781
35537SOL    HW1 8618  10.390   5.175   2.729
35537SOL    HW2 8619  10.436   5.312   2.773
35538SOL     OW 8620   4.059   0.304   3.252
35538SOL    HW1 8621   4.026   0.217   3.277
35538SOL    HW2 8622   4.005   0.365   3.301
35539SOL     OW 8623   1.258   9.681   3.613
35539SOL    HW1 8624   1.247   9.741   3.539
35539SOL    HW2 8625   1.173   9.639   3.623
35540SOL     OW 8626   0.852   0.382   6.485
35540SOL    HW1 8627   0.809   0.424   6.559
35540SOL    HW2 8628   0.852   0.448   6.416
35541SOL     OW 8629   1.546  10.209   4.473
35541SOL    HW1 8630   1.588  10.255   4.400
35541SOL    HW2 8631   1.462  10.180   4.437
35542SOL     OW 8632   0.639   4.462   7.820
35542SOL    HW1 8633   0.615   4.386   7.766
35542SOL    HW2 8634   0.708   4.429   7.877
35543SOL     OW 8635   8.722   9.907   9.843
35543SOL    HW1 8636   8.725   9.952   9.758
35543SOL    HW2 8637   8.799   9.939   9.890
35544SOL     OW 8638   2.415   3.979   1.613
35544SOL    HW1 8639   2.472   3.902   1.607
35544SOL    HW2 8640   2.439   4.033   1.537
35545SOL     OW 8641   4.394   4.820  10.763
35545SOL    HW1 8642   4.444   4.738  10.771
35545SOL    HW2 8643   4.305   4.795  10.787
35546SOL     OW 8644   0.818   4.291   4.670
35546SOL    HW1 8645   0.832   4.318   4.579
35546SOL    HW2 8646   0.724   4.298   4.683
35547SOL     OW 8647   7.021   9.016   6.809
35547SOL    HW1 8648   7.051   9.106   6.817
35547SOL    HW2 8649   7.068   8.968   6.878
35548SOL     OW 8650  10.531   2.616   6.980
35548SOL    HW1 8651  10.476   2.554   7.028
35548SOL    HW2 8652  10.620   2.583   6.991
35549SOL     OW 8653   7.231   2.778   3.128
35549SOL    HW1 8654   7.200   2.842   3.192
35549SOL    HW2 8655   7.152   2.746   3.085
35550SOL     OW 8656   9.780   4.000   9.512
35550SOL    HW1 8657   9.843   3.986   9.441
35550SOL    HW2 8658   9.703   4.038   9.469
35551SOL     OW 8659   5.148   7.599   0.198
35551SOL    HW1 8660   5.128   7.614   0.106
35551SOL    HW2 8661   5.241   7.620   0.207
35552SOL     OW 8662   8.572   9.268   3.590
35552SOL    HW1 8663   8.630   9.212   3.642
35552SOL    HW2 8664   8.522   9.206   3.536
35553SOL     OW 8665   9.423   6.971   6.254
35553SOL    HW1 8666   9.474   7.012   6.324
35553SOL    HW2 8667   9.487   6.916   6.208
35554SOL     OW 8668  10.993   3.259   8.514
35554SOL    HW1 8669  10.948   3.238   8.596
35554SOL    HW2 8670  11.015   3.173   8.477
35555SOL     OW 8671   8.105  10.678   4.751
35555SOL    HW1 8672   8.077  10.756   4.702
35555SOL    HW2 8673   8.069  10.604   4.701
35556SOL     OW 8674   0.268   9.104   7.585
35556SOL    HW1 8675   0.335   9.167   7.560
35556SOL    HW2 8676   0.196   9.120   7.524
35557SOL     OW 8677   0.296   3.795   5.562
35557SOL    HW1 8678   0.226   3.774   5.624
35557SOL    HW2 8679   0.319   3.710   5.522
35558SOL     OW 8680   0.651   2.779   5.507
35558SOL    HW1 8681   0.645   2.874   5.496
35558SOL    HW2 8682   0.721   2.752   5.447
35559SOL     OW 8683   2.037  10.799   9.403
35559SOL    HW1 8684   1.971  10.758   9.346
35559SOL    HW2 8685   2.081  10.863   9.346
35560SOL     OW 8686   3.392   2.277   6.779
35560SOL    HW1 8687   3.452   2.315   6.843
35560SOL    HW2 8688   3.432   2.192   6.756
35561SOL     OW 8689   5.662   1.599   3.818
35561SOL    HW1 8690   5.652   1.526   3.757
35561SOL    HW2 8691   5.737   1.575   3.872
35562SOL     OW 8692   6.019   5.857   5.978
35562SOL    HW1 8693   6.049   5.841   6.067
35562SOL    HW2 8694   5.933   5.898   5.988
35563SOL     OW 8695   9.564   6.700   0.722
35563SOL    HW1 8696   9.473   6.725   0.738
35563SOL    HW2 8697   9.594   6.663   0.805
35564SOL     OW 8698   5.160   8.433   5.424
35564SOL    HW1 8699   5.069   8.463   5.427
35564SOL    HW2 8700   5.161   8.355   5.479
35565SOL     OW 8701   2.301  10.527   5.829
35565SOL    HW1 8702   2.232  10.462   5.840
35565SOL    HW2 8703   2.255  10.611   5.827
35566SOL     OW 8704   5.699  10.348   7.078
35566SOL    HW1 8705   5.714  10.373   6.987
35566SOL    HW2 8706   5.649  10.266   7.072
35567SOL     OW 8707   8.165   4.893   3.943
35567SOL    HW1 8708   8.207   4.957   4.000
35567SOL    HW2 8709   8.086   4.937   3.911
35568SOL     OW 8710   0.885  11.086   2.998
35568SOL    HW1 8711   0.854  11.005   2.957
35568SOL    HW2 8712   0.857  11.155   2.938
35569SOL     OW 8713   0.593   3.543   1.776
35569SOL    HW1 8714   0.613   3.635   1.790
35569SOL    HW2 8715   0.651   3.516   1.705
35570SOL     OW 8716   9.888   1.064   1.490
35570SOL    HW1 8717   9.845   1.149   1.493
35570SOL    HW2 8718   9.949   1.070   1.416
35571SOL     OW 8719   6.478   5.955   6.422
35571SOL    HW1 8720   6.547   5.954   6.488
35571SOL    HW2 8721   6.516   5.907   6.348
35572SOL     OW 8722   6.782   8.568   4.859
35572SOL    HW1 8723   6.687   8.577   4.855
35572SOL    HW2 8724   6.802   8.565   4.952
35573SOL     OW 8725   3.510   7.188   4.671
35573SOL    HW1 8726   3.543   7.263   4.720
35573SOL    HW2 8727   3.554   7.112   4.710
35574SOL     OW 8728   5.095   3.765   3.334
35574SOL    HW1 8729   5.042   3.688   3.313
35574SOL    HW2 8730   5.050   3.806   3.408
35575SOL     OW 8731   1.161   4.622   3.905
35575SOL    HW1 8732   1.161   4.689   3.836
35575SOL    HW2 8733   1.241   4.639   3.955
35576SOL     OW 8734   1.042   5.830   9.629
35576SOL    HW1 8735   1.018   5.921   9.611
35576SOL    HW2 8736   0.971   5.797   9.684
35577SOL     OW 8737   2.494   8.739   8.253
35577SOL    HW1 8738   2.557   8.703   8.315
35577SOL    HW2 8739   2.413   8.691   8.271
35578SOL     OW 8740   7.745  10.952   1.195
35578SOL    HW1 8741   7.692  10.995   1.128
35578SOL    HW2 8742   7.715  10.991   1.277
35579SOL     OW 8743  10.301   8.970   7.629
35579SOL    HW1 8744  10.291   8.882   7.592
35579SOL    HW2 8745  10.233   9.021   7.586
35580SOL     OW 8746   3.570   6.024   0.962
35580SOL    HW1 8747   3.591   5.953   0.901
35580SOL    HW2 8748   3.637   6.090   0.946
35581SOL     OW 8749   6.148   7.017   3.344
35581SOL    HW1 8750   6.073   6.959   3.330
35581SOL    HW2 8751   6.111   7.105   3.340
35582SOL     OW 8752   3.249   7.349   3.821
35582SOL    HW1 8753   3.170   7.311   3.860
35582SOL    HW2 8754   3.276   7.417   3.883
35583SOL     OW 8755   8.144   7.502   9.970
35583SOL    HW1 8756   8.125   7.554   9.892
35583SOL    HW2 8757   8.098   7.419   9.956
35584SOL     OW 8758   1.392   7.943   4.917
35584SOL    HW1 8759   1.385   7.859   4.870
35584SOL    HW2 8760   1.429   8.003   4.852
35585SOL     OW 8761   2.633   2.321   2.305
35585SOL    HW1 8762   2.654   2.228   2.318
35585SOL    HW2 8763   2.541   2.328   2.331
35586SOL     OW 8764  10.813   1.443   3.360
35586SOL    HW1 8765  10.814   1.357   3.403
35586SOL    HW2 8766  10.855   1.502   3.422
35587SOL     OW 8767   5.290   4.762   3.618
35587SOL    HW1 8768   5.305   4.742   3.710
35587SOL    HW2 8769   5.216   4.707   3.593
35588SOL     OW 8770   7.438   6.453   5.621
35588SOL    HW1 8771   7.459   6.510   5.547
35588SOL    HW2 8772   7.372   6.393   5.586
35589SOL     OW 8773  10.052  10.364   2.937
35589SOL    HW1 8774  10.072  10.457   2.942
35589SOL    HW2 8775  10.085  10.327   3.019
35590SOL     OW 8776   6.696   4.838   2.920
35590SOL    HW1 8777   6.702   4.933   2.915
35590SOL    HW2 8778   6.752   4.814   2.994
35591SOL     OW 8779  10.920   7.218   2.525
35591SOL    HW1 8780  10.899   7.307   2.551
35591SOL    HW2 8781  11.016   7.216   2.519
35592SOL     OW 8782   4.477   1.015   2.554
35592SOL    HW1 8783   4.451   1.027   2.645
35592SOL    HW2 8784   4.395   1.023   2.504
35593SOL     OW 8785   7.652   9.315   4.700
35593SOL    HW1 8786   7.705   9.320   4.779
35593SOL    HW2 8787   7.568   9.352   4.724
35594SOL     OW 8788   8.809   5.414   2.791
35594SOL    HW1 8789   8.827   5.405   2.697
35594SOL    HW2 8790   8.852   5.496   2.816
35595SOL     OW 8791   7.963   2.951   4.127
35595SOL    HW1 8792   8.027   3.005   4.173
35595SOL    HW2 8793   8.000   2.939   4.039
35596SOL     OW 8794   1.092   8.826   1.513
35596SOL    HW1 8795   1.185   8.807   1.499
35596SOL    HW2 8796   1.047   8.746   1.484
35597SOL     OW 8797   0.303   3.326   6.629
35597SOL    HW1 8798   0.335   3.242   6.662
35597SOL    HW2 8799   0.379   3.384   6.632
35598SOL     OW 8800   0.526   7.922   1.460
35598SOL    HW1 8801   0.590   7.851   1.461
35598SOL    HW2 8802   0.453   7.887   1.408
35599SOL     OW 8803   7.925   3.328   9.530
35599SOL    HW1 8804   7.967   3.370   9.605
35599SOL    HW2 8805   7.980   3.351   9.455
35600SOL     OW 8806  10.173  10.752   5.428
35600SOL    HW1 8807  10.150  10.716   5.514
35600SOL    HW2 8808  10.223  10.682   5.385
35601SOL     OW 8809   5.822   8.515   1.319
35601SOL    HW1 8810   5.747   8.570   1.340
35601SOL    HW2 8811   5.804   8.482   1.231
35602SOL     OW 8812   0.180   9.882   4.830
35602SOL    HW1 8813   0.234   9.946   4.876
35602SOL    HW2 8814   0.233   9.802   4.829
35603SOL     OW 8815   4.156   9.232   1.022
35603SOL    HW1 8816   4.240   9.217   0.978
35603SOL    HW2 8817   4.099   9.164   0.986
35604SOL     OW 8818   6.285   8.358   8.736
35604SOL    HW1 8819   6.365   8.342   8.685
35604SOL    HW2 8820   6.242   8.430   8.690
35605SOL     OW 8821   1.460   6.271   2.805
35605SOL    HW1 8822   1.444   6.364   2.793
35605SOL    HW2 8823   1.549   6.266   2.841
35606SOL     OW 8824   5.586   9.643   7.709
35606SOL    HW1 8825   5.517   9.699   7.673
35606SOL    HW2 8826   5.657   9.703   7.732
35607SOL     OW 8827   1.032   8.854   2.705
35607SOL    HW1 8828   0.983   8.881   2.782
35607SOL    HW2 8829   1.057   8.763   2.723
35608SOL     OW 8830   1.532   9.918   6.929
35608SOL    HW1 8831   1.588   9.966   6.868
35608SOL    HW2 8832   1.523   9.975   7.005
35609SOL     OW 8833   2.224   6.979   4.331
35609SOL    HW1 8834   2.227   6.900   4.277
35609SOL    HW2 8835   2.294   7.034   4.296
35610SOL     OW 8836   2.430   0.635   5.471
35610SOL    HW1 8837   2.506   0.578   5.455
35610SOL    HW2 8838   2.468   0.715   5.507
35611SOL     OW 8839   0.557   2.322   9.290
35611SOL    HW1 8840   0.502   2.378   9.345
35611SOL    HW2 8841   0.517   2.326   9.203
35612SOL     OW 8842   7.216   1.921   4.381
35612SOL    HW1 8843   7.180   2.004   4.412
35612SOL    HW2 8844   7.211   1.863   4.457
35613SOL     OW 8845   1.389   5.063   9.169
35613SOL    HW1 8846   1.353   5.114   9.241
35613SOL    HW2 8847   1.432   4.988   9.211
35614SOL     OW 8848   2.467   5.212   7.397
35614SOL    HW1 8849   2.513   5.264   7.331
35614SOL    HW2 8850   2.517   5.226   7.477
35615SOL     OW 8851  10.508   4.908   1.831
35615SOL    HW1 8852  10.545   4.872   1.750
35615SOL    HW2 8853  10.446   4.974   1.801
35616SOL     OW 8854   5.890   3.065   0.820
35616SOL    HW1 8855   5.892   3.159   0.804
35616SOL    HW2 8856   5.913   3.056   0.912
35617SOL     OW 8857   5.820   4.900   8.563
35617SOL    HW1 8858   5.873   4.939   8.494
35617SOL    HW2 8859   5.736   4.882   8.521
35618SOL     OW 8860  10.588   5.259   6.156
35618SOL    HW1 8861  10.636   5.266   6.073
35618SOL    HW2 8862  10.547   5.344   6.168
35619SOL     OW 8863   0.524  10.910   0.708
35619SOL    HW1 8864   0.552  10.820   0.723
35619SOL    HW2 8865   0.567  10.960   0.777
35620SOL     OW 8866   4.839   0.348   0.358
35620SOL    HW1 8867   4.851   0.257   0.331
35620SOL    HW2 8868   4.744   0.360   0.358
35621SOL     OW 8869   8.513   1.851   1.489
35621SOL    HW1 8870   8.542   1.781   1.429
35621SOL    HW2 8871   8.446   1.809   1.544
35622SOL     OW 8872   6.587   6.491   5.616
35622SOL    HW1 8873   6.566   6.445   5.697
35622SOL    HW2 8874   6.531   6.450   5.550
35623SOL     OW 8875   5.729   6.185   0.652
35623SOL    HW1 8876   5.782   6.233   0.715
35623SOL    HW2 8877   5.714   6.100   0.693
35624SOL     OW 8878  10.853   4.226   3.103
35624SOL    HW1 8879  10.813   4.212   3.189
35624SOL    HW2 8880  10.780   4.223   3.041
35625SOL     OW 8881  10.832   4.655   1.568
35625SOL    HW1 8882  10.862   4.565   1.580
35625SOL    HW2 8883  10.853   4.675   1.476
35626SOL     OW 8884   5.461   7.299   3.073
35626SOL    HW1 8885   5.541   7.314   3.123
35626SOL    HW2 8886   5.487   7.315   2.982
35627SOL     OW 8887   0.018   9.194   5.674
35627SOL    HW1 8888   0.046   9.213   5.763
35627SOL    HW2 8889  -0.059   9.249   5.661
35628SOL     OW 8890   2.084   0.816   6.488
35628SOL    HW1 8891   2.030   0.797   6.564
35628SOL    HW2 8892   2.155   0.752   6.492
35629SOL     OW 8893   5.190   6.671   8.492
35629SOL    HW1 8894   5.213   6.628   8.409
35629SOL    HW2 8895   5.095   6.684   8.486
35630SOL     OW 8896   7.221   8.195   1.953
35630SOL    HW1 8897   7.296   8.248   1.980
35630SOL    HW2 8898   7.207   8.134   2.026
35631SOL     OW 8899   4.459   0.075   6.794
35631SOL    HW1 8900   4.465   0.170   6.803
35631SOL    HW2 8901   4.436   0.061   6.702
35632SOL     OW 8902   1.531   0.711   3.110
35632SOL    HW1 8903   1.624   0.726   3.125
35632SOL    HW2 8904   1.512   0.629   3.156
35633SOL     OW 8905  10.384   2.198   6.166
35633SOL    HW1 8906  10.419   2.287   6.161
35633SOL    HW2 8907  10.292   2.207   6.142
35634SOL     OW 8908   1.352   7.967   1.978
35634SOL    HW1 8909   1.351   8.062   1.968
35634SOL    HW2 8910   1.262   7.940   1.961
35635SOL     OW 8911   3.525   9.666  10.156
35635SOL    HW1 8912   3.617   9.689  10.167
35635SOL    HW2 8913   3.525   9.603  10.084
35636SOL     OW 8914   3.463  10.828   0.982
35636SOL    HW1 8915   3.532  10.895   0.982
35636SOL    HW2 8916   3.423  10.834   1.068
35637SOL     OW 8917   1.829   9.301   7.253
35637SOL    HW1 8918   1.918   9.268   7.238
35637SOL    HW2 8919   1.780   9.272   7.175
35638SOL     OW 8920   7.410   2.258   6.665
35638SOL    HW1 8921   7.487   2.236   6.613
35638SOL    HW2 8922   7.360   2.176   6.669
35639SOL     OW 8923   8.409   9.280   6.859
35639SOL    HW1 8924   8.405   9.232   6.941
35639SOL    HW2 8925   8.323   9.320   6.849
35640SOL     OW 8926   4.873   2.226   5.298
35640SOL    HW1 8927   4.788   2.239   5.339
35640SOL    HW2 8928   4.853   2.213   5.205
35641SOL     OW 8929   4.583   3.157   8.400
35641SOL    HW1 8930   4.580   3.209   8.480
35641SOL    HW2 8931   4.590   3.066   8.430
35642SOL     OW 8932  10.577   9.982   4.249
35642SOL    HW1 8933  10.485  10.005   4.257
35642SOL    HW2 8934  10.592   9.917   4.318
35643SOL     OW 8935   0.426   5.034   2.163
35643SOL    HW1 8936   0.449   5.123   2.136
35643SOL    HW2 8937   0.492   5.011   2.228
35644SOL     OW 8938   9.535   9.521   5.695
35644SOL    HW1 8939   9.604   9.581   5.665
35644SOL    HW2 8940   9.468   9.577   5.733
35645SOL     OW 8941   0.088   4.119   4.726
35645SOL    HW1 8942   0.032   4.176   4.673
35645SOL    HW2 8943   0.088   4.036   4.678
35646SOL     OW 8944   6.693   4.897   4.099
35646SOL    HW1 8945   6.648   4.885   4.015
35646SOL    HW2 8946   6.723   4.988   4.097
35647SOL     OW 8947   8.431   8.302  10.047
35647SOL    HW1 8948   8.498   8.369  10.057
35647SOL    HW2 8949   8.373   8.336   9.979
35648SOL     OW 8950   9.839   1.165   8.261
35648SOL    HW1 8951   9.780   1.237   8.240
35648SOL    HW2 8952   9.787   1.108   8.318
35649SOL     OW 8953   0.159  10.991   4.771
35649SOL    HW1 8954   0.111  11.016   4.691
35649SOL    HW2 8955   0.102  11.020   4.842
35650SOL     OW 8956   8.795   8.255   7.662
35650SOL    HW1 8957   8.807   8.347   7.637
35650SOL    HW2 8958   8.837   8.247   7.748
35651SOL     OW 8959   5.765   1.139   1.439
35651SOL    HW1 8960   5.688   1.105   1.484
35651SOL    HW2 8961   5.835   1.132   1.503
35652SOL     OW 8962  10.007   1.791   4.832
35652SOL    HW1 8963   9.956   1.746   4.764
35652SOL    HW2 8964   9.962   1.771   4.914
35653SOL     OW 8965   4.480   1.584   4.875
35653SOL    HW1 8966   4.571   1.595   4.903
35653SOL    HW2 8967   4.434   1.554   4.953
35654SOL     OW 8968   9.245   0.791   6.899
35654SOL    HW1 8969   9.240   0.864   6.837
35654SOL    HW2 8970   9.221   0.714   6.847
35655SOL     OW 8971   4.559   9.057   6.891
35655SOL    HW1 8972   4.490   9.071   6.826
35655SOL    HW2 8973   4.603   9.141   6.898
35656SOL     OW 8974   5.829   0.416   3.853
35656SOL    HW1 8975   5.855   0.480   3.787
35656SOL    HW2 8976   5.736   0.401   3.837
35657SOL     OW 8977   8.022   9.718   1.297
35657SOL    HW1 8978   8.007   9.629   1.329
35657SOL    HW2 8979   8.011   9.711   1.202
35658SOL     OW 8980   4.008   1.303  10.050
35658SOL    HW1 8981   3.997   1.240   9.979
35658SOL    HW2 8982   3.919   1.326  10.076
35659SOL     OW 8983   1.354   9.467   9.246
35659SOL    HW1 8984   1.277   9.414   9.267
35659SOL    HW2 8985   1.365   9.524   9.321
35660SOL     OW 8986   8.471   2.239   4.995
35660SOL    HW1 8987   8.536   2.264   5.061
35660SOL    HW2 8988   8.496   2.150   4.969
35661SOL     OW 8989   8.436   5.424   0.028
35661SOL    HW1 8990   8.369   5.373  -0.018
35661SOL    HW2 8991   8.516   5.372   0.019
35662SOL     OW 8992   0.089   7.441   8.406
35662SOL    HW1 8993   0.046   7.368   8.361
35662SOL    HW2 8994   0.017   7.498   8.432
35663SOL     OW 8995   2.598   2.015   8.754
35663SOL    HW1 8996   2.589   2.064   8.835
35663SOL    HW2 8997   2.524   2.044   8.700
35664SOL     OW 8998   9.240   7.269  10.158
35664SOL    HW1 8999   9.325   7.312  10.165
35664SOL    HW2 9000   9.180   7.327  10.204
35665SOL     OW 9001   0.939   1.757   7.872
35665SOL    HW1 9002   0.882   1.706   7.929
35665SOL    HW2 9003   0.974   1.826   7.928
35666SOL     OW 9004   4.998   9.384   6.155
35666SOL    HW1 9005   5.080   9.395   6.203
35666SOL    HW2 9006   4.930   9.390   6.221
35667SOL     OW 9007   7.913   7.206   7.821
35667SOL    HW1 9008   7.906   7.121   7.864
35667SOL    HW2 9009   7.997   7.202   7.774
35668SOL     OW 9010   8.005   5.825   5.996
35668SOL    HW1 9011   8.024   5.904   5.945
35668SOL    HW2 9012   7.947   5.774   5.939
35669SOL     OW 9013   5.321   0.206   2.110
35669SOL    HW1 9014   5.350   0.190   2.020
35669SOL    HW2 9015   5.232   0.240   2.100
35670SOL     OW 9016  10.935   7.798   4.521
35670SOL    HW1 9017  11.029   7.782   4.534
35670SOL    HW2 9018  10.908   7.847   4.598
35671SOL     OW 9019  10.043   7.393   7.560
35671SOL    HW1 9020  10.135   7.393   7.532
35671SOL    HW2 9021  10.031   7.306   7.599
35672SOL     OW 9022   8.272   5.693   6.268
35672SOL    HW1 9023   8.273   5.639   6.189
35672SOL    HW2 9024   8.296   5.633   6.338
35673SOL     OW 9025  10.682   0.256   7.848
35673SOL    HW1 9026  10.667   0.271   7.941
35673SOL    HW2 9027  10.750   0.189   7.845
35674SOL     OW 9028   2.678   5.673   6.188
35674SOL    HW1 9029   2.769   5.694   6.165
35674SOL    HW2 9030   2.655   5.736   6.256
35675SOL     OW 9031   9.459   9.620   7.181
35675SOL    HW1 9032   9.395   9.554   7.155
35675SOL    HW2 9033   9.453   9.623   7.276
35676SOL     OW 9034   3.247  10.496   6.812
35676SOL    HW1 9035   3.264  10.565   6.748
35676SOL    HW2 9036   3.313  10.429   6.793
35677SOL     OW 9037   9.856  10.456   4.825
35677SOL    HW1 9038   9.912  10.442   4.748
35677SOL    HW2 9039   9.789  10.517   4.795
35678SOL     OW 9040   7.551   6.208   3.459
35678SOL    HW1 9041   7.535   6.246   3.545
35678SOL    HW2 9042   7.529   6.115   3.469
35679SOL     OW 9043   0.740   8.421  10.402
35679SOL    HW1 9044   0.683   8.421  10.325
35679SOL    HW2 9045   0.824   8.454  10.369
35680SOL     OW 9046   6.944   2.803   2.415
35680SOL    HW1 9047   6.900   2.730   2.370
35680SOL    HW2 9048   7.035   2.774   2.424
35681SOL     OW 9049  10.088   0.825   5.552
35681SOL    HW1 9050  10.079   0.821   5.647
35681SOL    HW2 9051  10.024   0.762   5.519
35682SOL     OW 9052   8.154   6.180   6.159
35682SOL    HW1 9053   8.225   6.130   6.201
35682SOL    HW2 9054   8.159   6.155   6.066
35683SOL     OW 9055  11.080   1.830   6.734
35683SOL    HW1 9056  11.086   1.920   6.703
35683SOL    HW2 9057  11.127   1.830   6.817
35684SOL     OW 9058   2.997   6.461   2.155
35684SOL    HW1 9059   2.955   6.386   2.198
35684SOL    HW2 9060   3.019   6.429   2.067
35685SOL     OW 9061   1.303   6.729   8.125
35685SOL    HW1 9062   1.325   6.793   8.192
35685SOL    HW2 9063   1.379   6.730   8.066
35686SOL     OW 9064   1.178   3.018   2.297
35686SOL    HW1 9065   1.147   2.930   2.320
35686SOL    HW2 9066   1.146   3.074   2.367
35687SOL     OW 9067   7.831   5.251   7.480
35687SOL    HW1 9068   7.771   5.322   7.458
35687SOL    HW2 9069   7.822   5.240   7.574
35688SOL     OW 9070   8.718   8.028   3.458
35688SOL    HW1 9071   8.784   8.042   3.389
35688SOL    HW2 9072   8.716   8.110   3.507
35689SOL     OW 9073   7.818   7.712   4.731
35689SOL    HW1 9074   7.763   7.768   4.786
35689SOL    HW2 9075   7.902   7.707   4.777
35690SOL     OW 9076   9.682  10.547   8.254
35690SOL    HW1 9077   9.704  10.604   8.327
35690SOL    HW2 9078   9.705  10.459   8.284
35691SOL     OW 9079   7.621   6.405   4.486
35691SOL    HW1 9080   7.706   6.405   4.531
35691SOL    HW2 9081   7.637   6.454   4.405
35692SOL     OW 9082   8.757   4.890   6.988
35692SOL    HW1 9083   8.677   4.841   6.969
35692SOL    HW2 9084   8.809   4.830   7.041
35693SOL     OW 9085   0.195   3.976   4.128
35693SOL    HW1 9086   0.104   3.963   4.101
35693SOL    HW2 9087   0.246   3.949   4.051
35694SOL     OW 9088   8.991   4.310   7.799
35694SOL    HW1 9089   8.960   4.231   7.843
35694SOL    HW2 9090   9.072   4.283   7.755
35695SOL     OW 9091   7.159   5.249   7.395
35695SOL    HW1 9092   7.225   5.248   7.464
35695SOL    HW2 9093   7.139   5.341   7.381
35696SOL     OW 9094   7.416   9.938   3.400
35696SOL    HW1 9095   7.485   9.873   3.417
35696SOL    HW2 9096   7.344   9.887   3.363
35697SOL     OW 9097   2.892   4.333   5.978
35697SOL    HW1 9098   2.815   4.358   5.926
35697SOL    HW2 9099   2.946   4.282   5.917
35698SOL     OW 9100   4.212   9.632   4.561
35698SOL    HW1 9101   4.266   9.640   4.482
35698SOL    HW2 9102   4.124   9.656   4.532
35699SOL     OW 9103   9.831   4.006   8.986
35699SOL    HW1 9104   9.824   4.085   8.932
35699SOL    HW2 9105   9.882   3.945   8.932
35700SOL     OW 9106  10.691   3.706   4.920
35700SOL    HW1 9107  10.598   3.709   4.900
35700SOL    HW2 9108  10.698   3.644   4.993
35701SOL     OW 9109   9.238   4.062   4.417
35701SOL    HW1 9110   9.287   3.985   4.385
35701SOL    HW2 9111   9.301   4.134   4.413
35702SOL     OW 9112   5.733   0.486   6.786
35702SOL    HW1 9113   5.670   0.429   6.831
35702SOL    HW2 9114   5.793   0.425   6.743
35703SOL     OW 9115  10.574   9.922   6.905
35703SOL    HW1 9116  10.591  10.016   6.904
35703SOL    HW2 9117  10.595   9.893   6.816
35704SOL     OW 9118   7.073   5.483   5.800
35704SOL    HW1 9119   7.095   5.407   5.854
35704SOL    HW2 9120   7.146   5.543   5.812
35705SOL     OW 9121   6.118   9.669   3.873
35705SOL    HW1 9122   6.105   9.748   3.925
35705SOL    HW2 9123   6.111   9.597   3.936
35706SOL     OW 9124  10.588  10.252   9.978
35706SOL    HW1 9125  10.519  10.317   9.988
35706SOL    HW2 9126  10.542  10.169   9.963
35707SOL     OW 9127   4.800   9.269   7.219
35707SOL    HW1 9128   4.750   9.191   7.245
35707SOL    HW2 9129   4.888   9.235   7.199
35708SOL     OW 9130   1.961   8.800   4.340
35708SOL    HW1 9131   1.894   8.843   4.393
35708SOL    HW2 9132   1.994   8.729   4.395
35709SOL     OW 9133  10.026   1.930   3.906
35709SOL    HW1 9134   9.983   1.844   3.901
35709SOL    HW2 9135  10.112   1.911   3.943
35710SOL     OW 9136   0.839   4.952   3.448
35710SOL    HW1 9137   0.931   4.951   3.476
35710SOL    HW2 9138   0.843   4.941   3.353
35711SOL     OW 9139   6.771   8.620   7.737
35711SOL    HW1 9140   6.692   8.608   7.790
35711SOL    HW2 9141   6.825   8.681   7.787
35712SOL     OW 9142   2.881  10.256   3.278
35712SOL    HW1 9143   2.864  10.283   3.188
35712SOL    HW2 9144   2.841  10.169   3.284
35713SOL     OW 9145   6.907   5.812   3.248
35713SOL    HW1 9146   6.928   5.899   3.213
35713SOL    HW2 9147   6.909   5.754   3.171
35714SOL     OW 9148   6.900  10.647   8.446
35714SOL    HW1 9149   6.879  10.740   8.440
35714SOL    HW2 9150   6.846  10.615   8.517
35715SOL     OW 9151   0.287  10.357   7.027
35715SOL    HW1 9152   0.265  10.438   7.073
35715SOL    HW2 9153   0.237  10.361   6.945
35716SOL     OW 9154  10.684   8.888   6.396
35716SOL    HW1 9155  10.712   8.972   6.361
35716SOL    HW2 9156  10.598   8.905   6.434
35717SOL     OW 9157   3.316   4.443   0.105
35717SOL    HW1 9158   3.244   4.504   0.121
35717SOL    HW2 9159   3.382   4.466   0.170
35718SOL     OW 9160   8.987  10.601   6.485
35718SOL    HW1 9161   8.960  10.665   6.550
35718SOL    HW2 9162   8.910  10.588   6.430
35719SOL     OW 9163   0.433   7.225   6.616
35719SOL    HW1 9164   0.471   7.311   6.600
35719SOL    HW2 9165   0.417   7.189   6.528
35720SOL     OW 9166  10.781   2.740   9.475
35720SOL    HW1 9167  10.703   2.788   9.449
35720SOL    HW2 9168  10.756   2.648   9.468
35721SOL     OW 9169   7.067   1.114   6.338
35721SOL    HW1 9170   6.984   1.076   6.368
35721SOL    HW2 9171   7.049   1.207   6.329
35722SOL     OW 9172   5.773   3.769   0.873
35722SOL    HW1 9173   5.823   3.751   0.793
35722SOL    HW2 9174   5.814   3.847   0.910
35723SOL     OW 9175  10.309   6.476   1.479
35723SOL    HW1 9176  10.305   6.470   1.383
35723SOL    HW2 9177  10.389   6.428   1.502
35724SOL     OW 9178   3.992   4.506   5.932
35724SOL    HW1 9179   4.067   4.508   5.873
35724SOL    HW2 9180   4.028   4.526   6.018
35725SOL     OW 9181   2.309   5.817  10.915
35725SOL    HW1 9182   2.349   5.754  10.855
35725SOL    HW2 9183   2.226   5.840  10.873
35726SOL     OW 9184   9.178  10.822   7.841
35726SOL    HW1 9185   9.263  10.812   7.797
35726SOL    HW2 9186   9.115  10.780   7.782
35727SOL     OW 9187   8.357   4.760   1.101
35727SOL    HW1 9188   8.398   4.691   1.153
35727SOL    HW2 9189   8.299   4.713   1.041
35728SOL     OW 9190   5.031  10.253   4.260
35728SOL    HW1 9191   5.041  10.238   4.354
35728SOL    HW2 9192   5.088  10.187   4.219
35729SOL     OW 9193   0.809   5.632  10.841
35729SOL    HW1 9194   0.789   5.542  10.816
35729SOL    HW2 9195   0.799   5.633  10.936
35730SOL     OW 9196   2.914   9.894   3.540
35730SOL    HW1 9197   2.920   9.871   3.633
35730SOL    HW2 9198   2.889   9.812   3.497
35731SOL     OW 9199   8.252   2.014   7.202
35731SOL    HW1 9200   8.281   2.003   7.111
35731SOL    HW2 9201   8.157   2.014   7.197
35732SOL     OW 9202   9.554  10.874   1.587
35732SOL    HW1 9203   9.589  10.855   1.674
35732SOL    HW2 9204   9.547  10.969   1.584
35733SOL     OW 9205  10.076   8.038   5.618
35733SOL    HW1 9206  10.061   8.100   5.547
35733SOL    HW2 9207   9.992   8.032   5.663
35734SOL     OW 9208   7.711   8.442   4.400
35734SOL    HW1 9209   7.678   8.414   4.314
35734SOL    HW2 9210   7.657   8.517   4.423
35735SOL     OW 9211   9.013   5.657   2.689
35735SOL    HW1 9212   9.043   5.715   2.758
35735SOL    HW2 9213   9.061   5.575   2.704
35736SOL     OW 9214   7.436   9.591   1.125
35736SOL    HW1 9215   7.479   9.560   1.045
35736SOL    HW2 9216   7.508   9.623   1.180
35737SOL     OW 9217   8.879   5.210  10.160
35737SOL    HW1 9218   8.975   5.209  10.162
35737SOL    HW2 9219   8.856   5.303  10.160
35738SOL     OW 9220   6.378   9.150   9.588
35738SOL    HW1 9221   6.414   9.122   9.504
35738SOL    HW2 9222   6.453   9.151   9.647
35739SOL     OW 9223   7.786   6.934   6.713
35739SOL    HW1 9224   7.814   6.967   6.798
35739SOL    HW2 9225   7.717   6.871   6.733
35740SOL     OW 9226   5.312   8.498   2.882
35740SOL    HW1 9227   5.232   8.549   2.881
35740SOL    HW2 9228   5.378   8.556   2.845
35741SOL     OW 9229   8.706   6.625   1.549
35741SOL    HW1 9230   8.633   6.582   1.593
35741SOL    HW2 9231   8.772   6.637   1.618
35742SOL     OW 9232   0.531   3.019   1.885
35742SOL    HW1 9233   0.494   2.962   1.817
35742SOL    HW2 9234   0.536   2.963   1.962
35743SOL     OW 9235   2.067   7.081   3.776
35743SOL    HW1 9236   1.976   7.106   3.763
35743SOL    HW2 9237   2.075   6.995   3.734
35744SOL     OW 9238   4.431   2.479   7.139
35744SOL    HW1 9239   4.379   2.546   7.094
35744SOL    HW2 9240   4.522   2.500   7.117
35745SOL     OW 9241   9.341   8.323   3.254
35745SOL    HW1 9242   9.342   8.272   3.335
35745SOL    HW2 9243   9.415   8.288   3.203
35746SOL     OW 9244   7.952   9.764   2.679
35746SOL    HW1 9245   7.998   9.774   2.762
35746SOL    HW2 9246   8.021   9.742   2.616
35747SOL     OW 9247   6.005   7.136   7.331
35747SOL    HW1 9248   5.998   7.219   7.284
35747SOL    HW2 9249   5.981   7.157   7.421
35748SOL     OW 9250   9.470   0.928   5.475
35748SOL    HW1 9251   9.402   0.873   5.514
35748SOL    HW2 9252   9.473   1.006   5.530
35749SOL     OW 9253   4.359  10.994   7.608
35749SOL    HW1 9254   4.347  11.008   7.702
35749SOL    HW2 9255   4.296  11.053   7.567
35750SOL     OW 9256   9.768   7.306   3.972
35750SOL    HW1 9257   9.676   7.293   3.993
35750SOL    HW2 9258   9.790   7.391   4.008
35751SOL     OW 9259   8.620   2.891   1.368
35751SOL    HW1 9260   8.598   2.851   1.284
35751SOL    HW2 9261   8.539   2.886   1.419
35752SOL     OW 9262   9.880  11.059   4.959
35752SOL    HW1 9263   9.896  10.980   4.907
35752SOL    HW2 9264   9.937  11.125   4.920
35753SOL     OW 9265   9.349   1.519   1.580
35753SOL    HW1 9266   9.402   1.503   1.502
35753SOL    HW2 9267   9.377   1.451   1.642
35754SOL     OW 9268   7.963   9.238   8.538
35754SOL    HW1 9269   7.889   9.182   8.563
35754SOL    HW2 9270   8.037   9.204   8.589
35755SOL     OW 9271   0.661   9.280   4.489
35755SOL    HW1 9272   0.747   9.317   4.467
35755SOL    HW2 9273   0.599   9.349   4.468
35756SOL     OW 9274   8.063   3.061   2.224
35756SOL    HW1 9275   8.016   3.130   2.178
35756SOL    HW2 9276   8.154   3.091   2.227
35757SOL     OW 9277  10.881   9.435   2.994
35757SOL    HW1 9278  10.900   9.429   3.087
35757SOL    HW2 9279  10.966   9.454   2.954
35758SOL     OW 9280  10.376   9.712   4.863
35758SOL    HW1 9281  10.331   9.729   4.780
35758SOL    HW2 9282  10.309   9.724   4.930
35759SOL     OW 9283  10.941   7.144   1.798
35759SOL    HW1 9284  10.902   7.226   1.770
35759SOL    HW2 9285  10.997   7.167   1.872
35760SOL     OW 9286   1.047   0.417   1.658
35760SOL    HW1 9287   1.077   0.355   1.724
35760SOL    HW2 9288   1.036   0.499   1.705
35761SOL     OW 9289   1.514   3.118   7.644
35761SOL    HW1 9290   1.478   3.163   7.567
35761SOL    HW2 9291   1.437   3.091   7.694
35762SOL     OW 9292   7.285   4.461   6.760
35762SOL    HW1 9293   7.197   4.492   6.737
35762SOL    HW2 9294   7.271   4.402   6.834
35763SOL     OW 9295  10.849  10.926   5.233
35763SOL    HW1 9296  10.866  10.835   5.210
35763SOL    HW2 9297  10.759  10.941   5.205
35764SOL     OW 9298   3.646   7.090   7.924
35764SOL    HW1 9299   3.682   7.003   7.907
35764SOL    HW2 9300   3.664   7.106   8.016
35765SOL     OW 9301   4.380   4.475   1.805
35765SOL    HW1 9302   4.323   4.420   1.859
35765SOL    HW2 9303   4.342   4.470   1.717
35766SOL     OW 9304   4.444   9.177   0.425
35766SOL    HW1 9305   4.509   9.112   0.451
35766SOL    HW2 9306   4.455   9.185   0.330
35767SOL     OW 9307   2.392   5.760   9.435
35767SOL    HW1 9308   2.473   5.718   9.404
35767SOL    HW2 9309   2.334   5.687   9.456
35768SOL     OW 9310   0.320   5.629   8.753
35768SOL    HW1 9311   0.408   5.617   8.788
35768SOL    HW2 9312   0.323   5.587   8.667
35769SOL     OW 9313   6.834   8.879   1.697
35769SOL    HW1 9314   6.852   8.852   1.607
35769SOL    HW2 9315   6.920   8.886   1.738
35770SOL     OW 9316   5.358   8.745   3.096
35770SOL    HW1 9317   5.449   8.723   3.116
35770SOL    HW2 9318   5.353   8.740   3.000
35771SOL     OW 9319   0.509   2.534   4.939
35771SOL    HW1 9320   0.430   2.484   4.962
35771SOL    HW2 9321   0.582   2.477   4.965
35772SOL     OW 9322   6.888   0.579   0.849
35772SOL    HW1 9323   6.904   0.634   0.772
35772SOL    HW2 9324   6.901   0.489   0.817
35773SOL     OW 9325   6.823   9.741   8.450
35773SOL    HW1 9326   6.906   9.707   8.484
35773SOL    HW2 9327   6.792   9.801   8.517
35774SOL     OW 9328   5.989   9.445   4.255
35774SOL    HW1 9329   5.940   9.396   4.321
35774SOL    HW2 9330   6.081   9.433   4.279
35775SOL     OW 9331   7.759   8.208   7.405
35775SOL    HW1 9332   7.696   8.146   7.442
35775SOL    HW2 9333   7.791   8.258   7.480
35776SOL     OW 9334   0.081   2.058  10.815
35776SOL    HW1 9335   0.101   2.143  10.854
35776SOL    HW2 9336   0.127   1.995  10.870
35777SOL     OW 9337   5.257   6.162   6.792
35777SOL    HW1 9338   5.352   6.152   6.802
35777SOL    HW2 9339   5.247   6.236   6.733
35778SOL     OW 9340   8.695   7.551   3.709
35778SOL    HW1 9341   8.696   7.646   3.696
35778SOL    HW2 9342   8.765   7.535   3.772
35779SOL     OW 9343   8.047   6.888   3.952
35779SOL    HW1 9344   7.965   6.921   3.988
35779SOL    HW2 9345   8.035   6.793   3.950
35780SOL     OW 9346   8.353   0.419   8.087
35780SOL    HW1 9347   8.317   0.394   8.002
35780SOL    HW2 9348   8.313   0.358   8.148
35781SOL     OW 9349   1.701   5.117   5.799
35781SOL    HW1 9350   1.748   5.140   5.719
35781SOL    HW2 9351   1.765   5.128   5.869
35782SOL     OW 9352   5.403   6.859   6.802
35782SOL    HW1 9353   5.322   6.845   6.851
35782SOL    HW2 9354   5.424   6.773   6.766
35783SOL     OW 9355   7.883  11.055   6.588
35783SOL    HW1 9356   7.790  11.060   6.567
35783SOL    HW2 9357   7.926  11.101   6.515
35784SOL     OW 9358   9.991   9.885   4.829
35784SOL    HW1 9359  10.084   9.903   4.817
35784SOL    HW2 9360   9.968   9.929   4.910
35785SOL     OW 9361   8.561   0.309   5.520
35785SOL    HW1 9362   8.526   0.228   5.558
35785SOL    HW2 9363   8.649   0.317   5.557
35786SOL     OW 9364  10.280   0.769  10.718
35786SOL    HW1 9365  10.213   0.700  10.718
35786SOL    HW2 9366  10.312   0.770  10.628
35787SOL     OW 9367   6.702  10.751   5.879
35787SOL    HW1 9368   6.672  10.800   5.802
35787SOL    HW2 9369   6.778  10.702   5.847
35788SOL     OW 9370   1.129   9.714   5.203
35788SOL    HW1 9371   1.082   9.795   5.184
35788SOL    HW2 9372   1.219   9.732   5.177
35789SOL     OW 9373   7.002   1.300  10.048
35789SOL    HW1 9374   6.967   1.384  10.017
35789SOL    HW2 9375   6.948   1.277  10.124
35790SOL     OW 9376   2.882   1.820   3.208
35790SOL    HW1 9377   2.959   1.818   3.151
35790SOL    HW2 9378   2.829   1.892   3.174
35791SOL     OW 9379   0.118   7.256   4.683
35791SOL    HW1 9380   0.191   7.282   4.627
35791SOL    HW2 9381   0.040   7.282   4.633
35792SOL     OW 9382   7.812   8.959   2.684
35792SOL    HW1 9383   7.813   8.874   2.640
35792SOL    HW2 9384   7.905   8.981   2.693
35793SOL     OW 9385   5.723   0.233   6.050
35793SOL    HW1 9386   5.631   0.244   6.026
35793SOL    HW2 9387   5.749   0.318   6.085
35794SOL     OW 9388   4.706   4.313   8.081
35794SOL    HW1 9389   4.723   4.241   8.020
35794SOL    HW2 9390   4.716   4.392   8.027
35795SOL     OW 9391   5.403   8.299   3.555
35795SOL    HW1 9392   5.462   8.287   3.480
35795SOL    HW2 9393   5.430   8.382   3.594
35796SOL     OW 9394   1.279   8.243   1.923
35796SOL    HW1 9395   1.290   8.307   1.993
35796SOL    HW2 9396   1.203   8.274   1.874
35797SOL     OW 9397   2.483   1.447   6.222
35797SOL    HW1 9398   2.547   1.376   6.226
35797SOL    HW2 9399   2.487   1.478   6.131
35798SOL     OW 9400   3.095   9.558   8.433
35798SOL    HW1 9401   3.178   9.600   8.410
35798SOL    HW2 9402   3.119   9.494   8.500
35799SOL     OW 9403   0.774   6.806   5.235
35799SOL    HW1 9404   0.702   6.755   5.272
35799SOL    HW2 9405   0.763   6.797   5.140
35800SOL     OW 9406   6.542   1.013   7.860
35800SOL    HW1 9407   6.557   0.927   7.821
35800SOL    HW2 9408   6.479   0.997   7.930
35801SOL     OW 9409   2.846  10.296   6.423
35801SOL    HW1 9410   2.835  10.335   6.509
35801SOL    HW2 9411   2.941  10.295   6.409
35802SOL     OW 9412   1.672   4.921   8.489
35802SOL    HW1 9413   1.727   4.982   8.537
35802SOL    HW2 9414   1.606   4.976   8.447
35803SOL     OW 9415  10.219   2.071   0.707
35803SOL    HW1 9416  10.130   2.095   0.733
35803SOL    HW2 9417  10.273   2.147   0.729
35804SOL     OW 9418   9.443   8.313   4.511
35804SOL    HW1 9419   9.498   8.330   4.435
35804SOL    HW2 9420   9.477   8.230   4.546
35805SOL     OW 9421   7.833  10.501  10.260
35805SOL    HW1 9422   7.807  10.572  10.201
35805SOL    HW2 9423   7.782  10.426  10.230
35806SOL     OW 9424   3.443   4.780   7.926
35806SOL    HW1 9425   3.499   4.857   7.915
35806SOL    HW2 9426   3.354   4.814   7.927
35807SOL     OW 9427   2.156   9.058   7.937
35807SOL    HW1 9428   2.065   9.031   7.925
35807SOL    HW2 9429   2.150   9.148   7.969
35808SOL     OW 9430   0.882   1.738   0.056
35808SOL    HW1 9431   0.960   1.693   0.023
35808SOL    HW2 9432   0.912   1.780   0.137
35809SOL     OW 9433   6.250   1.366   4.821
35809SOL    HW1 9434   6.266   1.326   4.735
35809SOL    HW2 9435   6.168   1.327   4.851
35810SOL     OW 9436   5.175  10.579   6.070
35810SOL    HW1 9437   5.197  10.586   5.977
35810SOL    HW2 9438   5.080  10.571   6.071
35811SOL     OW 9439   0.028  10.067   5.356
35811SOL    HW1 9440   0.122  10.079   5.346
35811SOL    HW2 9441   0.014   9.973   5.341
35812SOL     OW 9442   8.557  10.500   5.698
35812SOL    HW1 9443   8.502  10.549   5.759
35812SOL    HW2 9444   8.638  10.551   5.692
35813SOL     OW 9445   6.877   9.253   7.003
35813SOL    HW1 9446   6.965   9.247   6.965
35813SOL    HW2 9447   6.819   9.262   6.927
35814SOL     OW 9448  10.321   5.955   2.880
35814SOL    HW1 9449  10.229   5.942   2.857
35814SOL    HW2 9450  10.331   5.913   2.965
35815SOL     OW 9451   0.131   5.782   5.920
35815SOL    HW1 9452   0.106   5.711   5.979
35815SOL    HW2 9453   0.092   5.860   5.959
35816SOL     OW 9454   7.414   4.204   8.784
35816SOL    HW1 9455   7.324   4.230   8.803
35816SOL    HW2 9456   7.468   4.257   8.843
35817SOL     OW 9457   8.061   4.473   7.683
35817SOL    HW1 9458   8.092   4.387   7.713
35817SOL    HW2 9459   8.133   4.506   7.629
35818SOL     OW 9460   3.463   8.013   5.833
35818SOL    HW1 9461   3.386   8.068   5.818
35818SOL    HW2 9462   3.496   8.041   5.918
35819SOL     OW 9463   3.388   9.998   4.930
35819SOL    HW1 9464   3.310  10.053   4.925
35819SOL    HW2 9465   3.462  10.059   4.930
35820SOL     OW 9466   9.204   6.079   0.688
35820SOL    HW1 9467   9.270   6.011   0.703
35820SOL    HW2 9468   9.231   6.120   0.605
35821SOL     OW 9469   0.488   4.547  10.377
35821SOL    HW1 9470   0.511   4.473  10.433
35821SOL    HW2 9471   0.566   4.602  10.377
35822SOL     OW 9472   6.403  10.502   3.335
35822SOL    HW1 9473   6.370  10.591   3.322
35822SOL    HW2 9474   6.479  10.496   3.277
35823SOL     OW 9475   9.710   0.329   6.424
35823SOL    HW1 9476   9.744   0.363   6.341
35823SOL    HW2 9477   9.766   0.253   6.443
35824SOL     OW 9478   2.922   3.348   9.719
35824SOL    HW1 9479   2.828   3.329   9.722
35824SOL    HW2 9480   2.964   3.262   9.718
35825SOL     OW 9481  10.143   0.328   7.588
35825SOL    HW1 9482  10.226   0.328   7.636
35825SOL    HW2 9483  10.110   0.417   7.597
35826SOL     OW 9484   3.575   0.709   5.991
35826SOL    HW1 9485   3.617   0.795   5.993
35826SOL    HW2 9486   3.630   0.657   5.932
35827SOL     OW 9487   7.804   5.600   8.254
35827SOL    HW1 9488   7.874   5.555   8.207
35827SOL    HW2 9489   7.812   5.569   8.344
35828SOL     OW 9490  10.701   2.402   7.883
35828SOL    HW1 9491  10.695   2.312   7.850
35828SOL    HW2 9492  10.621   2.415   7.933
35829SOL     OW 9493   0.185   0.565   7.200
35829SOL    HW1 9494   0.246   0.521   7.259
35829SOL    HW2 9495   0.185   0.656   7.227
35830SOL     OW 9496  10.508   8.727   3.619
35830SOL    HW1 9497  10.555   8.799   3.577
35830SOL    HW2 9498  10.574   8.684   3.674
35831SOL     OW 9499   1.972   8.172   1.521
35831SOL    HW1 9500   2.050   8.117   1.519
35831SOL    HW2 9501   1.991   8.242   1.459
35832SOL     OW 9502   3.044   6.963   3.816
35832SOL    HW1 9503   3.073   7.054   3.811
35832SOL    HW2 9504   2.954   6.968   3.846
35833SOL     OW 9505   7.078  10.307   5.921
35833SOL    HW1 9506   7.123  10.261   5.992
35833SOL    HW2 9507   7.145  10.364   5.883
35834SOL     OW 9508   1.933   6.234   7.133
35834SOL    HW1 9509   1.934   6.314   7.081
35834SOL    HW2 9510   1.841   6.207   7.134
35835SOL     OW 9511   5.319   2.413   9.877
35835SOL    HW1 9512   5.365   2.334   9.848
35835SOL    HW2 9513   5.389   2.471   9.908
35836SOL     OW 9514   6.856   9.467   8.900
35836SOL    HW1 9515   6.946   9.496   8.914
35836SOL    HW2 9516   6.804   9.547   8.902
35837SOL     OW 9517  10.734   3.857   7.428
35837SOL    HW1 9518  10.647   3.891   7.448
35837SOL    HW2 9519  10.791   3.893   7.496
35838SOL     OW 9520   1.216   0.624   9.950
35838SOL    HW1 9521   1.146   0.569   9.915
35838SOL    HW2 9522   1.216   0.605  10.044
35839SOL     OW 9523  10.476   8.529   7.866
35839SOL    HW1 9524  10.414   8.551   7.935
35839SOL    HW2 9525  10.528   8.457   7.902
35840SOL     OW 9526   4.476  11.017   1.016
35840SOL    HW1 9527   4.558  10.975   1.044
35840SOL    HW2 9528   4.408  10.952   1.033
35841SOL     OW 9529  10.238   9.443   1.453
35841SOL    HW1 9530  10.302   9.371   1.446
35841SOL    HW2 9531  10.169   9.419   1.390
35842SOL     OW 9532   8.690   4.262   2.991
35842SOL    HW1 9533   8.711   4.291   3.080
35842SOL    HW2 9534   8.773   4.270   2.943
35843SOL     OW 9535   9.523  10.825   9.459
35843SOL    HW1 9536   9.573  10.757   9.413
35843SOL    HW2 9537   9.433  10.812   9.429
35844SOL     OW 9538   5.314   2.146   5.267
35844SOL    HW1 9539   5.271   2.075   5.218
35844SOL    HW2 9540   5.361   2.196   5.200
35845SOL     OW 9541   0.437   7.574   3.195
35845SOL    HW1 9542   0.429   7.669   3.204
35845SOL    HW2 9543   0.353   7.539   3.226
35846SOL     OW 9544   8.317  10.400   5.511
35846SOL    HW1 9545   8.387  10.419   5.573
35846SOL    HW2 9546   8.242  10.377   5.565
35847SOL     OW 9547   4.246   3.360   2.498
35847SOL    HW1 9548   4.259   3.357   2.403
35847SOL    HW2 9549   4.197   3.440   2.513
35848SOL     OW 9550   1.997   7.268  11.027
35848SOL    HW1 9551   2.028   7.177  11.036
35848SOL    HW2 9552   1.914   7.260  10.980
35849SOL     OW 9553   6.592   6.139   2.192
35849SOL    HW1 9554   6.605   6.177   2.105
35849SOL    HW2 9555   6.647   6.060   2.192
35850SOL     OW 9556   9.208   2.042   7.470
35850SOL    HW1 9557   9.304   2.036   7.470
35850SOL    HW2 9558   9.185   2.061   7.561
35851SOL     OW 9559   8.730  10.287   4.627
35851SOL    HW1 9560   8.700  10.251   4.710
35851SOL    HW2 9561   8.765  10.211   4.579
35852SOL     OW 9562   0.199   8.739   7.896
35852SOL    HW1 9563   0.203   8.818   7.843
35852SOL    HW2 9564   0.215   8.668   7.834
35853SOL     OW 9565   0.700   9.491   7.122
35853SOL    HW1 9566   0.659   9.462   7.040
35853SOL    HW2 9567   0.794   9.485   7.104
35854SOL     OW 9568   9.942   2.020   7.226
35854SOL    HW1 9569   9.980   1.932   7.224
35854SOL    HW2 9570   9.991   2.065   7.294
35855SOL     OW 9571   5.113   8.921  10.228
35855SOL    HW1 9572   5.166   8.847  10.197
35855SOL    HW2 9573   5.028   8.908  10.186
35856SOL     OW 9574   4.724   9.515   3.041
35856SOL    HW1 9575   4.674   9.565   2.976
35856SOL    HW2 9576   4.687   9.427   3.037
35857SOL     OW 9577   9.478   2.433   8.451
35857SOL    HW1 9578   9.425   2.483   8.512
35857SOL    HW2 9579   9.559   2.414   8.499
35858SOL     OW 9580   1.684   4.074   3.899
35858SOL    HW1 9581   1.766   4.037   3.866
35858SOL    HW2 9582   1.622   4.063   3.827
35859SOL     OW 9583   7.381  10.418  10.248
35859SOL    HW1 9584   7.296  10.382  10.272
35859SOL    HW2 9585   7.364  10.467  10.167
35860SOL     OW 9586   8.041   3.414   7.891
35860SOL    HW1 9587   7.955   3.375   7.908
35860SOL    HW2 9588   8.100   3.338   7.884
35861SOL     OW 9589   9.803   1.293   9.044
35861SOL    HW1 9590   9.736   1.354   9.014
35861SOL    HW2 9591   9.767   1.206   9.024
35862SOL     OW 9592   8.498   9.560   3.720
35862SOL    HW1 9593   8.531   9.481   3.675
35862SOL    HW2 9594   8.570   9.622   3.714
35863SOL     OW 9595   4.902   0.196   3.668
35863SOL    HW1 9596   4.880   0.176   3.577
35863SOL    HW2 9597   4.934   0.113   3.704
35864SOL     OW 9598   1.016  10.465  10.080
35864SOL    HW1 9599   1.021  10.552  10.041
35864SOL    HW2 9600   1.005  10.481  10.173
35865SOL     OW 9601   9.616   4.710   1.398
35865SOL    HW1 9602   9.545   4.774   1.389
35865SOL    HW2 9603   9.571   4.626   1.410
35866SOL     OW 9604  10.173   6.821  10.655
35866SOL    HW1 9605  10.234   6.767  10.604
35866SOL    HW2 9606  10.219   6.904  10.666
35867SOL     OW 9607   6.123   8.905   6.803
35867SOL    HW1 9608   6.144   8.848   6.877
35867SOL    HW2 9609   6.115   8.992   6.841
35868SOL     OW 9610   1.291   7.841   2.883
35868SOL    HW1 9611   1.259   7.930   2.893
35868SOL    HW2 9612   1.297   7.828   2.788
35869SOL     OW 9613   5.584   7.463   4.244
35869SOL    HW1 9614   5.555   7.422   4.162
35869SOL    HW2 9615   5.648   7.401   4.280
35870SOL     OW 9616   5.055   1.639   4.928
35870SOL    HW1 9617   5.072   1.679   5.013
35870SOL    HW2 9618   5.139   1.599   4.903
35871SOL     OW 9619   7.020   7.031   4.862
35871SOL    HW1 9620   7.014   6.938   4.884
35871SOL    HW2 9621   7.039   7.031   4.768
35872SOL     OW 9622   6.082   8.709   8.193
35872SOL    HW1 9623   6.083   8.789   8.245
35872SOL    HW2 9624   6.001   8.665   8.218
35873SOL     OW 9625   5.110   9.721   0.223
35873SOL    HW1 9626   5.133   9.662   0.295
35873SOL    HW2 9627   5.179   9.707   0.157
35874SOL     OW 9628   0.259   0.414   8.979
35874SOL    HW1 9629   0.320   0.340   8.982
35874SOL    HW2 9630   0.311   0.486   8.944
35875SOL     OW 9631  10.341   8.989   6.272
35875SOL    HW1 9632  10.312   9.001   6.362
35875SOL    HW2 9633  10.292   8.912   6.241
35876SOL     OW 9634   4.513   9.959   6.815
35876SOL    HW1 9635   4.514   9.991   6.905
35876SOL    HW2 9636   4.436   9.999   6.776
35877SOL     OW 9637   0.672   0.013   2.572
35877SOL    HW1 9638   0.629  -0.069   2.596
35877SOL    HW2 9639   0.605   0.062   2.525
35878SOL     OW 9640   6.908  10.831   2.918
35878SOL    HW1 9641   6.869  10.905   2.964
35878SOL    HW2 9642   6.908  10.760   2.981
35879SOL     OW 9643   3.959   8.240   6.517
35879SOL    HW1 9644   3.919   8.234   6.603
35879SOL    HW2 9645   4.053   8.241   6.534
35880SOL     OW 9646   9.447   0.487   7.672
35880SOL    HW1 9647   9.487   0.568   7.642
35880SOL    HW2 9648   9.364   0.482   7.625
35881SOL     OW 9649  10.442   0.012   6.334
35881SOL    HW1 9650  10.456   0.019   6.428
35881SOL    HW2 9651  10.530   0.002   6.297
35882SOL     OW 9652   9.170   0.583   6.726
35882SOL    HW1 9653   9.157   0.490   6.707
35882SOL    HW2 9654   9.251   0.605   6.680
35883SOL     OW 9655   7.910   6.672   1.257
35883SOL    HW1 9656   7.882   6.763   1.256
35883SOL    HW2 9657   7.839   6.625   1.214
35884SOL     OW 9658   0.559   5.995   2.554
35884SOL    HW1 9659   0.539   5.955   2.469
35884SOL    HW2 9660   0.475   6.026   2.587
35885SOL     OW 9661   9.437   0.755   1.872
35885SOL    HW1 9662   9.453   0.676   1.924
35885SOL    HW2 9663   9.374   0.727   1.805
35886SOL     OW 9664   1.619   4.998   4.304
35886SOL    HW1 9665   1.539   5.043   4.329
35886SOL    HW2 9666   1.624   4.923   4.363
35887SOL     OW 9667   3.256   7.427   4.368
35887SOL    HW1 9668   3.237   7.339   4.334
35887SOL    HW2 9669   3.345   7.421   4.402
35888SOL     OW 9670   3.067   6.144   5.768
35888SOL    HW1 9671   3.099   6.233   5.760
35888SOL    HW2 9672   3.022   6.142   5.852
35889SOL     OW 9673   8.617   4.801   9.999
35889SOL    HW1 9674   8.551   4.732   9.987
35889SOL    HW2 9675   8.612   4.853   9.919
35890SOL     OW 9676   9.058   5.869  11.086
35890SOL    HW1 9677   8.974   5.823  11.084
35890SOL    HW2 9678   9.046   5.943  11.027
35891SOL     OW 9679  10.666   2.092   9.944
35891SOL    HW1 9680  10.718   2.073   9.866
35891SOL    HW2 9681  10.730   2.098  10.014
35892SOL     OW 9682   5.152  10.170   3.098
35892SOL    HW1 9683   5.229  10.222   3.077
35892SOL    HW2 9684   5.169  10.085   3.057
35893SOL     OW 9685   6.883  10.361   9.969
35893SOL    HW1 9686   6.827  10.415   9.913
35893SOL    HW2 9687   6.860  10.386  10.058
35894SOL     OW 9688   7.278   1.562   5.058
35894SOL    HW1 9689   7.212   1.544   4.991
35894SOL    HW2 9690   7.228   1.591   5.134
35895SOL     OW 9691   5.992  10.749   8.715
35895SOL    HW1 9692   6.087  10.733   8.716
35895SOL    HW2 9693   5.955  10.668   8.681
35896SOL     OW 9694   7.927   1.391   5.287
35896SOL    HW1 9695   7.892   1.434   5.209
35896SOL    HW2 9696   7.853   1.385   5.347
35897SOL     OW 9697   7.459   7.720  10.917
35897SOL    HW1 9698   7.482   7.638  10.961
35897SOL    HW2 9699   7.539   7.746  10.872
35898SOL     OW 9700   4.621   1.775  10.706
35898SOL    HW1 9701   4.531   1.747  10.687
35898SOL    HW2 9702   4.676   1.710  10.661
35899SOL     OW 9703   2.104   5.221   3.579
35899SOL    HW1 9704   2.061   5.143   3.614
35899SOL    HW2 9705   2.197   5.206   3.596
35900SOL     OW 9706   7.477   4.682   6.882
35900SOL    HW1 9707   7.429   4.613   6.836
35900SOL    HW2 9708   7.492   4.749   6.815
35901SOL     OW 9709   1.873   3.630   4.922
35901SOL    HW1 9710   1.967   3.623   4.905
35901SOL    HW2 9711   1.835   3.652   4.837
35902SOL     OW 9712   1.665   9.353   3.932
35902SOL    HW1 9713   1.593   9.327   3.989
35902SOL    HW2 9714   1.743   9.315   3.973
35903SOL     OW 9715   9.302   7.053   0.642
35903SOL    HW1 9716   9.236   7.115   0.610
35903SOL    HW2 9717   9.383   7.079   0.598
35904SOL     OW 9718  10.901   1.570   1.851
35904SOL    HW1 9719  10.971   1.632   1.871
35904SOL    HW2 9720  10.923   1.492   1.902
35905SOL     OW 9721   9.690  10.801   7.513
35905SOL    HW1 9722   9.657  10.889   7.496
35905SOL    HW2 9723   9.751  10.811   7.586
35906SOL     OW 9724   7.941  10.603   7.042
35906SOL    HW1 9725   7.878  10.656   7.090
35906SOL    HW2 9726   7.928  10.628   6.950
35907SOL     OW 9727   9.806   9.071   7.567
35907SOL    HW1 9728   9.805   9.105   7.656
35907SOL    HW2 9729   9.746   9.127   7.519
35908SOL     OW 9730   6.159   2.193  10.098
35908SOL    HW1 9731   6.239   2.202  10.149
35908SOL    HW2 9732   6.090   2.227  10.154
35909SOL     OW 9733   8.126  11.051   0.142
35909SOL    HW1 9734   8.103  11.022   0.054
35909SOL    HW2 9735   8.174  10.977   0.180
35910SOL     OW 9736   4.334   5.831   9.117
35910SOL    HW1 9737   4.297   5.919   9.117
35910SOL    HW2 9738   4.344   5.808   9.209
35911SOL     OW 9739   1.437   9.968  10.169
35911SOL    HW1 9740   1.457  10.060  10.182
35911SOL    HW2 9741   1.405   9.963  10.078
35912SOL     OW 9742   5.072   4.551   0.812
35912SOL    HW1 9743   5.055   4.464   0.848
35912SOL    HW2 9744   5.165   4.567   0.830
35913SOL     OW 9745   6.739   0.160   8.123
35913SOL    HW1 9746   6.669   0.159   8.058
35913SOL    HW2 9747   6.717   0.088   8.182
35914SOL     OW 9748   0.608   9.320   5.070
35914SOL    HW1 9749   0.551   9.396   5.079
35914SOL    HW2 9750   0.548   9.247   5.055
35915SOL     OW 9751   7.627   6.236   6.401
35915SOL    HW1 9752   7.602   6.194   6.483
35915SOL    HW2 9753   7.545   6.244   6.352
35916SOL     OW 9754   2.497   5.157   4.712
35916SOL    HW1 9755   2.448   5.238   4.707
35916SOL    HW2 9756   2.586   5.184   4.736
35917SOL     OW 9757   7.029   5.064   7.212
35917SOL    HW1 9758   7.026   5.122   7.136
35917SOL    HW2 9759   7.091   5.105   7.271
35918SOL     OW 9760   4.760   1.968   6.907
35918SOL    HW1 9761   4.781   1.898   6.845
35918SOL    HW2 9762   4.776   2.049   6.858
35919SOL     OW 9763   4.872   8.184  10.496
35919SOL    HW1 9764   4.922   8.236  10.559
35919SOL    HW2 9765   4.832   8.248  10.437
35920SOL     OW 9766   0.990  10.599   0.647
35920SOL    HW1 9767   0.962  10.614   0.556
35920SOL    HW2 9768   1.017  10.507   0.649
35921SOL     OW 9769   7.086   0.200   7.970
35921SOL    HW1 9770   7.181   0.199   7.982
35921SOL    HW2 9771   7.054   0.257   8.040
35922SOL     OW 9772   2.900   1.027   3.594
35922SOL    HW1 9773   2.864   0.944   3.562
35922SOL    HW2 9774   2.884   1.088   3.522
35923SOL     OW 9775   5.121   0.642   6.258
35923SOL    HW1 9776   5.032   0.647   6.224
35923SOL    HW2 9777   5.157   0.563   6.218
35924SOL     OW 9778   9.612   7.691   1.084
35924SOL    HW1 9779   9.649   7.755   1.144
35924SOL    HW2 9780   9.532   7.661   1.127
35925SOL     OW 9781   1.926   1.262   9.871
35925SOL    HW1 9782   1.882   1.182   9.841
35925SOL    HW2 9783   1.869   1.297   9.939
35926SOL     OW 9784   7.032   8.846   0.824
35926SOL    HW1 9785   6.943   8.843   0.790
35926SOL    HW2 9786   7.062   8.934   0.804
35927SOL     OW 9787   7.904   5.119   0.018
35927SOL    HW1 9788   7.813   5.138  -0.004
35927SOL    HW2 9789   7.915   5.154   0.107
35928SOL     OW 9790   9.277   1.176   9.889
35928SOL    HW1 9791   9.293   1.246   9.826
35928SOL    HW2 9792   9.182   1.162   9.885
35929SOL     OW 9793   1.592   2.186   3.427
35929SOL    HW1 9794   1.510   2.150   3.460
35929SOL    HW2 9795   1.649   2.192   3.504
35930SOL     OW 9796   5.832   9.951   0.215
35930SOL    HW1 9797   5.784   9.869   0.227
35930SOL    HW2 9798   5.913   9.924   0.171
35931SOL     OW 9799   9.557   7.349   2.164
35931SOL    HW1 9800   9.528   7.432   2.125
35931SOL    HW2 9801   9.602   7.304   2.092
35932SOL     OW 9802   9.627   6.040   9.720
35932SOL    HW1 9803   9.670   5.958   9.745
35932SOL    HW2 9804   9.542   6.037   9.764
35933SOL     OW 9805  10.659   5.298   8.962
35933SOL    HW1 9806  10.752   5.287   8.982
35933SOL    HW2 9807  10.614   5.261   9.037
35934SOL     OW 9808   9.890   0.311   5.086
35934SOL    HW1 9809   9.806   0.294   5.043
35934SOL    HW2 9810   9.950   0.247   5.048
35935SOL     OW 9811   9.236   0.269   5.646
35935SOL    HW1 9812   9.218   0.327   5.572
35935SOL    HW2 9813   9.297   0.204   5.611
35936SOL     OW 9814  10.529   7.392   3.211
35936SOL    HW1 9815  10.596   7.452   3.244
35936SOL    HW2 9816  10.452   7.409   3.265
35937SOL     OW 9817   9.373   9.646   1.687
35937SOL    HW1 9818   9.464   9.616   1.692
35937SOL    HW2 9819   9.323   9.578   1.733
35938SOL     OW 9820   0.884   3.464   2.966
35938SOL    HW1 9821   0.972   3.430   2.981
35938SOL    HW2 9822   0.850   3.483   3.053
35939SOL     OW 9823   6.240  10.023   3.643
35939SOL    HW1 9824   6.154  10.024   3.601
35939SOL    HW2 9825   6.221  10.007   3.735
35940SOL     OW 9826   3.761   0.276   0.263
35940SOL    HW1 9827   3.703   0.287   0.188
35940SOL    HW2 9828   3.735   0.192   0.301
35941SOL     OW 9829   2.074   3.568   6.494
35941SOL    HW1 9830   2.024   3.496   6.533
35941SOL    HW2 9831   2.094   3.626   6.567
35942SOL     OW 9832   6.132   7.836   9.817
35942SOL    HW1 9833   6.085   7.902   9.767
35942SOL    HW2 9834   6.207   7.882   9.854
35943SOL     OW 9835   9.008   4.708   7.143
35943SOL    HW1 9836   8.992   4.771   7.213
35943SOL    HW2 9837   8.952   4.633   7.164
35944SOL     OW 9838   2.955   1.354   6.093
35944SOL    HW1 9839   2.977   1.301   6.016
35944SOL    HW2 9840   2.870   1.392   6.072
35945SOL     OW 9841   3.102   7.176   9.175
35945SOL    HW1 9842   3.173   7.206   9.231
35945SOL    HW2 9843   3.145   7.119   9.111
35946SOL     OW 9844   0.262   2.053   8.507
35946SOL    HW1 9845   0.355   2.049   8.529
35946SOL    HW2 9846   0.229   2.131   8.552
35947SOL     OW 9847  10.405   0.564   6.415
35947SOL    HW1 9848  10.425   0.473   6.393
35947SOL    HW2 9849  10.342   0.558   6.487
35948SOL     OW 9850   1.395  10.392   7.646
35948SOL    HW1 9851   1.302  10.406   7.632
35948SOL    HW2 9852   1.435  10.478   7.636
35949SOL     OW 9853   0.982   2.329   8.225
35949SOL    HW1 9854   1.039   2.400   8.253
35949SOL    HW2 9855   0.926   2.368   8.158
35950SOL     OW 9856  10.379   8.104   8.558
35950SOL    HW1 9857  10.411   8.100   8.468
35950SOL    HW2 9858  10.284   8.096   8.550
35951SOL     OW 9859  10.299   9.357   7.869
35951SOL    HW1 9860  10.368   9.408   7.911
35951SOL    HW2 9861  10.302   9.384   7.777
35952SOL     OW 9862   3.436   1.502   4.667
35952SOL    HW1 9863   3.415   1.430   4.607
35952SOL    HW2 9864   3.506   1.467   4.722
35953SOL     OW 9865   3.473   2.120   8.969
35953SOL    HW1 9866   3.548   2.060   8.968
35953SOL    HW2 9867   3.399   2.067   8.939
35954SOL     OW 9868   3.279   0.418  10.443
35954SOL    HW1 9869   3.282   0.455  10.531
35954SOL    HW2 9870   3.267   0.324  10.457
35955SOL     OW 9871   9.842   0.366   6.196
35955SOL    HW1 9872   9.936   0.352   6.187
35955SOL    HW2 9873   9.805   0.331   6.115
35956SOL     OW 9874   4.256   7.592   7.305
35956SOL    HW1 9875   4.315   7.614   7.233
35956SOL    HW2 9876   4.301   7.623   7.383
35957SOL     OW 9877   9.025   4.616   0.448
35957SOL    HW1 9878   8.958   4.548   0.456
35957SOL    HW2 9879   8.982   4.696   0.478
35958SOL     OW 9880   7.044   9.344  10.783
35958SOL    HW1 9881   7.044   9.318  10.691
35958SOL    HW2 9882   6.952   9.341  10.808
35959SOL     OW 9883   9.232   2.397   1.743
35959SOL    HW1 9884   9.138   2.380   1.747
35959SOL    HW2 9885   9.249   2.459   1.813
35960SOL     OW 9886   9.382   9.106   5.927
35960SOL    HW1 9887   9.429   9.043   5.982
35960SOL    HW2 9888   9.440   9.120   5.852
35961SOL     OW 9889  10.608   0.037   9.850
35961SOL    HW1 9890  10.588   0.077   9.765
35961SOL    HW2 9891  10.625   0.111   9.908
35962SOL     OW 9892   5.871   8.376   3.123
35962SOL    HW1 9893   5.891   8.376   3.029
35962SOL    HW2 9894   5.861   8.468   3.145
35963SOL     OW 9895  10.755   4.358   9.846
35963SOL    HW1 9896  10.668   4.323   9.866
35963SOL    HW2 9897  10.739   4.444   9.808
35964SOL     OW 9898   7.513   8.070   2.717
35964SOL    HW1 9899   7.569   8.117   2.655
35964SOL    HW2 9900   7.488   8.136   2.781
35965SOL     OW 9901   6.080   1.744   3.148
35965SOL    HW1 9902   6.099   1.833   3.118
35965SOL    HW2 9903   5.985   1.738   3.145
35966SOL     OW 9904   8.835   3.201   7.939
35966SOL    HW1 9905   8.918   3.213   7.986
35966SOL    HW2 9906   8.768   3.228   8.001
35967SOL     OW 9907   8.102   1.582   6.706
35967SOL    HW1 9908   8.189   1.546   6.686
35967SOL    HW2 9909   8.116   1.676   6.712
35968SOL     OW 9910   6.034   0.533   9.671
35968SOL    HW1 9911   5.949   0.492   9.688
35968SOL    HW2 9912   6.096   0.460   9.669
35969SOL     OW 9913   4.164   1.022   8.274
35969SOL    HW1 9914   4.258   1.041   8.277
35969SOL    HW2 9915   4.158   0.937   8.230
35970SOL     OW 9916   6.495   2.051   9.957
35970SOL    HW1 9917   6.548   2.119   9.998
35970SOL    HW2 9918   6.425   2.098   9.913
35971SOL     OW 9919   8.756   2.306   6.829
35971SOL    HW1 9920   8.778   2.366   6.899
35971SOL    HW2 9921   8.838   2.293   6.782
35972SOL     OW 9922   6.841   6.643   0.988
35972SOL    HW1 9923   6.839   6.688   0.904
35972SOL    HW2 9924   6.908   6.689   1.039
35973SOL     OW 9925   6.943   9.097   4.734
35973SOL    HW1 9926   6.909   9.023   4.683
35973SOL    HW2 9927   6.889   9.098   4.813
35974SOL     OW 9928   1.503   7.911   3.932
35974SOL    HW1 9929   1.490   8.000   3.901
35974SOL    HW2 9930   1.473   7.912   4.023
35975SOL     OW 9931   3.184   8.608   7.105
35975SOL    HW1 9932   3.143   8.558   7.034
35975SOL    HW2 9933   3.278   8.606   7.084
35976SOL     OW 9934   2.931   8.031   1.034
35976SOL    HW1 9935   2.909   8.102   0.974
35976SOL    HW2 9936   2.910   7.951   0.985
35977SOL     OW 9937   5.436   1.756   1.841
35977SOL    HW1 9938   5.436   1.780   1.933
35977SOL    HW2 9939   5.490   1.822   1.798
35978SOL     OW 9940   6.922   1.424   1.185
35978SOL    HW1 9941   6.934   1.485   1.112
35978SOL    HW2 9942   6.998   1.439   1.241
35979SOL     OW 9943   4.930   7.898   5.482
35979SOL    HW1 9944   5.001   7.886   5.418
35979SOL    HW2 9945   4.975   7.901   5.566
35980SOL     OW 9946   2.056  11.007   8.354
35980SOL    HW1 9947   2.052  11.084   8.411
35980SOL    HW2 9948   2.065  11.043   8.265
35981SOL     OW 9949   2.570   0.270   8.795
35981SOL    HW1 9950   2.630   0.269   8.720
35981SOL    HW2 9951   2.619   0.312   8.865
35982SOL     OW 9952   1.999   2.232   4.485
35982SOL    HW1 9953   1.958   2.200   4.404
35982SOL    HW2 9954   1.961   2.178   4.554
35983SOL     OW 9955   7.252  10.734  10.621
35983SOL    HW1 9956   7.312  10.801  10.655
35983SOL    HW2 9957   7.310  10.663  10.592
35984SOL     OW 9958   7.156   7.049   3.186
35984SOL    HW1 9959   7.129   7.058   3.094
35984SOL    HW2 9960   7.197   6.962   3.190
35985SOL     OW 9961   1.645   9.319   5.904
35985SOL    HW1 9962   1.660   9.249   5.840
35985SOL    HW2 9963   1.577   9.373   5.864
35986SOL     OW 9964   1.801  10.755   8.700
35986SOL    HW1 9965   1.873  10.814   8.677
35986SOL    HW2 9966   1.808  10.683   8.637
35987SOL     OW 9967   5.507   5.512   7.193
35987SOL    HW1 9968   5.595   5.500   7.158
35987SOL    HW2 9969   5.465   5.427   7.180
35988SOL     OW 9970   1.201   9.740   6.108
35988SOL    HW1 9971   1.125   9.685   6.126
35988SOL    HW2 9972   1.261   9.682   6.061
35989SOL     OW 9973   5.260   8.342   7.916
35989SOL    HW1 9974   5.251   8.271   7.980
35989SOL    HW2 9975   5.287   8.418   7.967
35990SOL     OW 9976   7.107   3.992   9.002
35990SOL    HW1 9977   7.143   3.919   9.052
35990SOL    HW2 9978   7.051   4.038   9.064
35991SOL     OW 9979   8.932   8.910   5.794
35991SOL    HW1 9980   9.019   8.945   5.810
35991SOL    HW2 9981   8.891   8.973   5.735
35992SOL     OW 9982   2.942   2.938   8.165
35992SOL    HW1 9983   2.982   2.926   8.079
35992SOL    HW2 9984   3.014   2.966   8.221
35993SOL     OW 9985   5.836  10.109  10.084
35993SOL    HW1 9986   5.835  10.150   9.997
35993SOL    HW2 9987   5.895  10.163  10.136
35994SOL     OW 9988   0.850   3.548   3.279
35994SOL    HW1 9989   0.786   3.525   3.346
35994SOL    HW2 9990   0.854   3.643   3.280
35995SOL     OW 9991   9.495   2.809   0.181
35995SOL    HW1 9992   9.539   2.816   0.096
35995SOL    HW2 9993   9.527   2.726   0.218
35996SOL     OW 9994   8.856   9.312  10.724
35996SOL    HW1 9995   8.899   9.396  10.739
35996SOL    HW2 9996   8.839   9.310  10.630
35997SOL     OW 9997   8.845   9.114   8.191
35997SOL    HW1 9998   8.908   9.041   8.198
35997SOL    HW2 9999   8.873   9.163   8.113
35998SOL     OW10000   9.384   9.929   4.129
35998SOL    HW110001   9.373   9.938   4.034
35998SOL    HW210002   9.432   9.846   4.140
35999SOL     OW10003   0.355   1.349   2.524
35999SOL    HW110004   0.359   1.340   2.619
35999SOL    HW210005   0.363   1.443   2.508
36000SOL     OW10006  10.940   5.447   6.144
36000SOL    HW110007  10.862   5.442   6.199
36000SOL    HW210008  10.970   5.356   6.137
36001SOL     OW10009   8.827   1.188   9.218
36001SOL    HW110010   8.848   1.229   9.301
36001SOL    HW210011   8.911   1.182   9.172
36002SOL     OW10012   8.679   5.302   4.776
36002SOL    HW110013   8.725   5.309   4.859
36002SOL    HW210014   8.586   5.306   4.799
36003SOL     OW10015   9.010   2.623   7.908
36003SOL    HW110016   8.966   2.581   7.982
36003SOL    HW210017   8.972   2.581   7.830
36004SOL     OW10018   9.594   9.610   6.593
36004SOL    HW110019   9.553   9.539   6.642
36004SOL    HW210020   9.607   9.574   6.505
36005SOL     OW10021   0.835   0.845  10.876
36005SOL    HW110022   0.828   0.895  10.794
36005SOL    HW210023   0.929   0.838  10.892
36006SOL     OW10024   0.920   8.203   4.025
36006SOL    HW110025   0.888   8.174   4.110
36006SOL    HW210026   0.896   8.295   4.020
36007SOL     OW10027  10.913   8.765   3.522
36007SOL    HW110028  10.944   8.726   3.440
36007SOL    HW210029  10.824   8.794   3.502
36008SOL     OW10030   7.354   0.187   7.998
36008SOL    HW110031   7.435   0.237   7.992
36008SOL    HW210032   7.381   0.097   7.980
36009SOL     OW10033   6.953   7.071   0.764
36009SOL    HW110034   6.858   7.079   0.772
36009SOL    HW210035   6.976   7.133   0.695
36010SOL     OW10036   9.196   8.478   2.941
36010SOL    HW110037   9.280   8.509   2.976
36010SOL    HW210038   9.220   8.430   2.861
36011SOL     OW10039   3.578  10.557  10.124
36011SOL    HW110040   3.504  10.611  10.151
36011SOL    HW210041   3.599  10.505  10.201
36012SOL     OW10042   8.952   3.341   5.024
36012SOL    HW110043   8.884   3.323   4.959
36012SOL    HW210044   8.986   3.254   5.046
36013SOL     OW10045   6.357   4.756   9.958
36013SOL    HW110046   6.346   4.842   9.997
36013SOL    HW210047   6.316   4.763   9.872
36014SOL     OW10048   6.761   1.102  10.960
36014SOL    HW110049   6.844   1.121  11.004
36014SOL    HW210050   6.702   1.171  10.989
36015SOL     OW10051  10.937   3.870   6.260
36015SOL    HW110052  10.858   3.841   6.214
36015SOL    HW210053  10.990   3.791   6.268
36016SOL     OW10054   6.436   4.622   1.024
36016SOL    HW110055   6.341   4.632   1.029
36016SOL    HW210056   6.449   4.559   0.953
36017SOL     OW10057   0.451   8.693   4.915
36017SOL    HW110058   0.506   8.765   4.944
36017SOL    HW210059   0.513   8.630   4.877
36018SOL     OW10060   9.164   1.815   5.363
36018SOL    HW110061   9.216   1.734   5.369
36018SOL    HW210062   9.073   1.785   5.366
36019SOL     OW10063   9.680   3.252   8.275
36019SOL    HW110064   9.715   3.169   8.307
36019SOL    HW210065   9.610   3.274   8.335
36020SOL     OW10066   4.816   7.330   2.009
36020SOL    HW110067   4.724   7.345   1.987
36020SOL    HW210068   4.856   7.417   2.007
36021SOL     OW10069   4.859   1.284   2.602
36021SOL    HW110070   4.791   1.274   2.535
36021SOL    HW210071   4.879   1.377   2.602
36022SOL     OW10072   7.712   9.916   4.344
36022SOL    HW110073   7.717   9.954   4.256
36022SOL    HW210074   7.654   9.974   4.392
36023SOL     OW10075   0.057   7.700   0.055
36023SOL    HW110076   0.134   7.748   0.085
36023SOL    HW210077  -0.008   7.767   0.034
36024SOL     OW10078   9.020   1.790   2.390
36024SOL    HW110079   9.026   1.762   2.298
36024SOL    HW210080   9.056   1.716   2.439
36025SOL     OW10081   0.673   9.453   9.135
36025SOL    HW110082   0.767   9.451   9.116
36025SOL    HW210083   0.665   9.511   9.210
36026SOL     OW10084   8.314   6.482   1.266
36026SOL    HW110085   8.354   6.567   1.250
36026SOL    HW210086   8.348   6.425   1.196
36027SOL     OW10087   0.211   5.197   9.562
36027SOL    HW110088   0.179   5.198   9.652
36027SOL    HW210089   0.170   5.273   9.521
36028SOL     OW10090   7.028   4.684   2.874
36028SOL    HW110091   7.042   4.589   2.880
36028SOL    HW210092   7.054   4.717   2.959
36029SOL     OW10093  10.842   4.822   3.549
36029SOL    HW110094  10.793   4.762   3.493
36029SOL    HW210095  10.934   4.798   3.536
36030SOL     OW10096  10.851   3.790   7.176
36030SOL    HW110097  10.800   3.784   7.257
36030SOL    HW210098  10.855   3.883   7.157
36031SOL     OW10099   8.998   9.733   9.152
36031SOL    HW110100   8.930   9.760   9.091
36031SOL    HW210101   8.967   9.649   9.187
36032SOL     OW10102   9.298   9.642   7.435
36032SOL    HW110103   9.278   9.679   7.521
36032SOL    HW210104   9.247   9.561   7.431
36033SOL     OW10105   7.689   6.541   6.018
36033SOL    HW110106   7.627   6.588   5.962
36033SOL    HW210107   7.723   6.471   5.961
36034SOL     OW10108   8.651   2.089   1.957
36034SOL    HW110109   8.706   2.108   2.033
36034SOL    HW210110   8.709   2.042   1.897
36035SOL     OW10111  10.651   2.725  10.755
36035SOL    HW110112  10.591   2.792  10.788
36035SOL    HW210113  10.687   2.684  10.833
36036SOL     OW10114   3.770   7.554   8.462
36036SOL    HW110115   3.804   7.464   8.460
36036SOL    HW210116   3.675   7.543   8.472
36037SOL     OW10117   2.654   0.073   9.388
36037SOL    HW110118   2.606  -0.000   9.427
36037SOL    HW210119   2.717   0.031   9.328
36038SOL     OW10120   3.539  10.140  10.664
36038SOL    HW110121   3.561  10.228  10.695
36038SOL    HW210122   3.618  10.111  10.617
36039SOL     OW10123   7.526   3.933   0.924
36039SOL    HW110124   7.475   3.912   0.846
36039SOL    HW210125   7.495   4.019   0.950
36040SOL     OW10126   3.268   0.453   9.079
36040SOL    HW110127   3.238   0.519   9.016
36040SOL    HW210128   3.199   0.449   9.145
36041SOL     OW10129   1.923   9.387   1.428
36041SOL    HW110130   1.912   9.482   1.434
36041SOL    HW210131   2.014   9.372   1.453
36042SOL     OW10132   0.378   9.407   6.020
36042SOL    HW110133   0.300   9.413   5.964
36042SOL    HW210134   0.372   9.482   6.078
36043SOL     OW10135   5.983   9.259   9.812
36043SOL    HW110136   6.047   9.206   9.763
36043SOL    HW210137   5.899   9.238   9.771
36044SOL     OW10138  10.881  10.426   2.382
36044SOL    HW110139  10.851  10.499   2.328
36044SOL    HW210140  10.802  10.378   2.405
36045SOL     OW10141   3.328   9.402  10.074
36045SOL    HW110142   3.420   9.382  10.090
36045SOL    HW210143   3.295   9.325  10.026
36046SOL     OW10144   8.953   1.566   7.044
36046SOL    HW110145   9.037   1.575   7.090
36046SOL    HW210146   8.889   1.603   7.103
36047SOL     OW10147   9.886   7.700   8.781
36047SOL    HW110148   9.921   7.732   8.697
36047SOL    HW210149   9.951   7.726   8.846
36048SOL     OW10150  11.089   9.231  11.104
36048SOL    HW110151  11.055   9.320  11.097
36048SOL    HW210152  11.135   9.216  11.021
36049SOL     OW10153   4.688   9.952   7.192
36049SOL    HW110154   4.733   9.879   7.235
36049SOL    HW210155   4.603   9.916   7.167
36050SOL     OW10156   9.980   8.452   4.144
36050SOL    HW110157  10.065   8.407   4.142
36050SOL    HW210158   9.950   8.450   4.053
36051SOL     OW10159   2.831   9.240   0.234
36051SOL    HW110160   2.763   9.305   0.249
36051SOL    HW210161   2.817   9.174   0.302
36052SOL     OW10162   1.369   7.188   8.332
36052SOL    HW110163   1.437   7.235   8.380
36052SOL    HW210164   1.351   7.242   8.255
36053SOL     OW10165   0.905   8.514   8.503
36053SOL    HW110166   0.968   8.475   8.441
36053SOL    HW210167   0.821   8.475   8.478
36054SOL     OW10168   9.547   9.524   8.463
36054SOL    HW110169   9.605   9.596   8.438
36054SOL    HW210170   9.473   9.530   8.402
36055SOL     OW10171   5.561   2.493   1.261
36055SOL    HW110172   5.499   2.546   1.311
36055SOL    HW210173   5.619   2.557   1.220
36056SOL     OW10174  10.850   0.065  11.021
36056SOL    HW110175  10.767   0.108  11.001
36056SOL    HW210176  10.874   0.096  11.108
36057SOL     OW10177  10.636   3.841  10.653
36057SOL    HW110178  10.713   3.867  10.602
36057SOL    HW210179  10.563   3.848  10.591
36058SOL     OW10180   0.582   1.802   8.106
36058SOL    HW110181   0.667   1.766   8.132
36058SOL    HW210182   0.587   1.894   8.130
36059SOL     OW10183   6.356   7.737   6.591
36059SOL    HW110184   6.416   7.809   6.573
36059SOL    HW210185   6.282   7.777   6.635
36060SOL     OW10186   0.521   9.068   2.630
36060SOL    HW110187   0.507   8.973   2.636
36060SOL    HW210188   0.616   9.077   2.621
36061SOL     OW10189   9.015   9.794   7.611
36061SOL    HW110190   9.001   9.702   7.586
36061SOL    HW210191   9.105   9.796   7.644
36062SOL     OW10192   7.924  10.615   7.976
36062SOL    HW110193   7.939  10.635   7.883
36062SOL    HW210194   7.839  10.654   7.996
36063SOL     OW10195   3.020   1.855  10.945
36063SOL    HW110196   3.000   1.900  10.863
36063SOL    HW210197   3.116   1.855  10.949
36064SOL     OW10198   4.598   9.784   8.389
36064SOL    HW110199   4.692   9.776   8.369
36064SOL    HW210200   4.573   9.697   8.420
36065SOL     OW10201   4.385  10.750   8.022
36065SOL    HW110202   4.455  10.713   7.968
36065SOL    HW210203   4.305  10.717   7.982
36066SOL     OW10204   1.970   4.002   6.449
36066SOL    HW110205   1.991   3.928   6.391
36066SOL    HW210206   1.998   4.079   6.400
36067SOL     OW10207   1.806   5.343   0.966
36067SOL    HW110208   1.835   5.268   0.913
36067SOL    HW210209   1.718   5.361   0.934
36068SOL     OW10210   8.043  10.876   7.560
36068SOL    HW110211   8.079  10.965   7.557
36068SOL    HW210212   7.981  10.873   7.487
36069SOL     OW10213  10.690   7.426   7.915
36069SOL    HW110214  10.601   7.413   7.946
36069SOL    HW210215  10.680   7.469   7.830
36070SOL     OW10216   0.403   9.662  10.573
36070SOL    HW110217   0.479   9.628  10.526
36070SOL    HW210218   0.407   9.756  10.560
36071SOL     OW10219   6.270   0.851   8.561
36071SOL    HW110220   6.359   0.877   8.537
36071SOL    HW210221   6.281   0.792   8.635
36072SOL     OW10222   2.817  10.828   2.790
36072SOL    HW110223   2.750  10.796   2.730
36072SOL    HW210224   2.893  10.844   2.733
36073SOL     OW10225   6.883   4.495   7.666
36073SOL    HW110226   6.936   4.417   7.647
36073SOL    HW210227   6.947   4.566   7.675
36074SOL     OW10228   3.480   0.852   7.150
36074SOL    HW110229   3.497   0.852   7.244
36074SOL    HW210230   3.386   0.866   7.142
36075SOL     OW10231   9.902  10.424   7.824
36075SOL    HW110232   9.875  10.437   7.733
36075SOL    HW210233   9.872  10.503   7.869
36076SOL     OW10234   2.659   2.070   6.223
36076SOL    HW110235   2.641   2.112   6.139
36076SOL    HW210236   2.715   1.995   6.201
36077SOL     OW10237   4.521   8.836   8.116
36077SOL    HW110238   4.538   8.891   8.192
36077SOL    HW210239   4.595   8.775   8.113
36078SOL     OW10240  10.426   8.552   3.402
36078SOL    HW110241  10.463   8.576   3.487
36078SOL    HW210242  10.468   8.469   3.380
36079SOL     OW10243   6.337   6.079   7.743
36079SOL    HW110244   6.424   6.110   7.770
36079SOL    HW210245   6.291   6.158   7.714
36080SOL     OW10246   6.399   5.558   0.234
36080SOL    HW110247   6.377   5.492   0.299
36080SOL    HW210248   6.341   5.539   0.160
36081SOL     OW10249  10.068   6.977   9.895
36081SOL    HW110250  10.098   6.928   9.971
36081SOL    HW210251  10.001   7.036   9.929
36082SOL     OW10252   9.037  10.930   9.475
36082SOL    HW110253   9.013  10.872   9.402
36082SOL    HW210254   9.064  10.871   9.545
36083SOL     OW10255   3.169   5.544   9.486
36083SOL    HW110256   3.235   5.586   9.431
36083SOL    HW210257   3.096   5.606   9.487
36084SOL     OW10258  10.239   7.299   0.908
36084SOL    HW110259  10.232   7.259   0.995
36084SOL    HW210260  10.293   7.237   0.858
36085SOL     OW10261   8.189   7.510   4.824
36085SOL    HW110262   8.266   7.466   4.859
36085SOL    HW210263   8.178   7.472   4.736
36086SOL     OW10264   8.328  10.503   4.857
36086SOL    HW110265   8.410  10.491   4.808
36086SOL    HW210266   8.263  10.455   4.806
36087SOL     OW10267  11.095  10.118   9.633
36087SOL    HW110268  11.085  10.098   9.539
36087SOL    HW210269  11.045  10.198   9.646
36088SOL     OW10270   4.794   1.768   7.197
36088SOL    HW110271   4.834   1.691   7.238
36088SOL    HW210272   4.738   1.731   7.128
36089SOL     OW10273   8.899   2.423   4.673
36089SOL    HW110274   8.878   2.485   4.603
36089SOL    HW210275   8.839   2.445   4.744
36090SOL     OW10276  10.602   8.953  10.825
36090SOL    HW110277  10.613   8.900  10.746
36090SOL    HW210278  10.653   9.032  10.808
36091SOL     OW10279   6.599   9.054   5.407
36091SOL    HW110280   6.622   9.039   5.315
36091SOL    HW210281   6.546   9.133   5.406
36092SOL     OW10282   1.557  10.867   2.225
36092SOL    HW110283   1.546  10.828   2.138
36092SOL    HW210284   1.504  10.947   2.222
36093SOL     OW10285   6.401   1.399  10.238
36093SOL    HW110286   6.370   1.317  10.199
36093SOL    HW210287   6.423   1.376  10.328
36094SOL     OW10288   3.018   1.840   2.122
36094SOL    HW110289   3.066   1.910   2.078
36094SOL    HW210290   3.052   1.839   2.211
36095SOL     OW10291   6.013   8.812   8.876
36095SOL    HW110292   5.955   8.754   8.826
36095SOL    HW210293   6.081   8.754   8.910
36096SOL     OW10294   7.767   7.605   7.028
36096SOL    HW110295   7.768   7.521   6.982
36096SOL    HW210296   7.853   7.642   7.010
36097SOL     OW10297   7.478   8.811   8.521
36097SOL    HW110298   7.407   8.825   8.458
36097SOL    HW210299   7.495   8.716   8.517
36098SOL     OW10300   2.609   2.263   0.873
36098SOL    HW110301   2.664   2.315   0.931
36098SOL    HW210302   2.659   2.258   0.791
36099SOL     OW10303   5.745   7.344   9.860
36099SOL    HW110304   5.801   7.280   9.904
36099SOL    HW210305   5.768   7.427   9.900
36100SOL     OW10306   0.083   6.075   9.131
36100SOL    HW110307   0.112   5.986   9.110
36100SOL    HW210308   0.007   6.062   9.188
36101SOL     OW10309   6.998   8.645   8.352
36101SOL    HW110310   6.918   8.697   8.349
36101SOL    HW210311   7.065   8.704   8.387
36102SOL     OW10312   3.398   2.862   6.987
36102SOL    HW110313   3.322   2.904   7.026
36102SOL    HW210314   3.363   2.785   6.941
36103SOL     OW10315   7.776   7.349   0.184
36103SOL    HW110316   7.773   7.322   0.092
36103SOL    HW210317   7.870   7.357   0.204
36104SOL     OW10318   9.765   3.848   9.747
36104SOL    HW110319   9.779   3.916   9.681
36104SOL    HW210320   9.846   3.847   9.798
36105SOL     OW10321   2.688   2.521   0.054
36105SOL    HW110322   2.706   2.593  -0.005
36105SOL    HW210323   2.614   2.475   0.014
36106SOL     OW10324   2.324   9.914  10.549
36106SOL    HW110325   2.416   9.897  10.571
36106SOL    HW210326   2.278   9.834  10.576
36107SOL     OW10327   3.368   9.363   5.760
36107SOL    HW110328   3.442   9.341   5.703
36107SOL    HW210329   3.333   9.278   5.787
36108SOL     OW10330   7.763   8.519  10.037
36108SOL    HW110331   7.794   8.552  10.121
36108SOL    HW210332   7.799   8.580   9.972
36109SOL     OW10333   8.513   3.750   7.730
36109SOL    HW110334   8.490   3.836   7.696
36109SOL    HW210335   8.458   3.739   7.807
36110SOL     OW10336   0.072   8.025   0.663
36110SOL    HW110337   0.161   8.023   0.628
36110SOL    HW210338   0.075   7.969   0.740
36111SOL     OW10339   0.034   5.980  10.569
36111SOL    HW110340  -0.012   5.921  10.628
36111SOL    HW210341   0.082   5.922  10.510
36112SOL     OW10342   2.407   2.860   3.826
36112SOL    HW110343   2.355   2.797   3.876
36112SOL    HW210344   2.495   2.852   3.862
36113SOL     OW10345   7.269   8.595  10.626
36113SOL    HW110346   7.345   8.558  10.671
36113SOL    HW210347   7.194   8.547  10.661
36114SOL     OW10348   8.075   8.305  10.562
36114SOL    HW110349   8.111   8.217  10.574
36114SOL    HW210350   8.015   8.316  10.635
36115SOL     OW10351   3.596   9.237   8.344
36115SOL    HW110352   3.510   9.275   8.329
36115SOL    HW210353   3.578   9.145   8.364
36116SOL     OW10354   7.174  10.077   6.389
36116SOL    HW110355   7.211   9.999   6.431
36116SOL    HW210356   7.169  10.142   6.459
36117SOL     OW10357   2.119   0.247   3.027
36117SOL    HW110358   2.037   0.221   2.984
36117SOL    HW210359   2.173   0.168   3.024
36118SOL     OW10360   1.157  10.890   2.242
36118SOL    HW110361   1.080  10.869   2.189
36118SOL    HW210362   1.218  10.929   2.179
36119SOL     OW10363  10.803   1.607   9.945
36119SOL    HW110364  10.762   1.548   9.881
36119SOL    HW210365  10.743   1.681   9.950
36120SOL     OW10366   9.787   1.835   6.191
36120SOL    HW110367   9.829   1.758   6.151
36120SOL    HW210368   9.788   1.817   6.285
36121SOL     OW10369   9.703   4.060   3.430
36121SOL    HW110370   9.779   4.004   3.447
36121SOL    HW210371   9.708   4.129   3.496
36122SOL     OW10372   9.701   9.832   0.992
36122SOL    HW110373   9.750   9.840   0.909
36122SOL    HW210374   9.702   9.738   1.011
36123SOL     OW10375   4.195   0.247  10.404
36123SOL    HW110376   4.244   0.292  10.472
36123SOL    HW210377   4.158   0.170  10.447
36124SOL     OW10378   9.585   3.365   2.889
36124SOL    HW110379   9.658   3.417   2.923
36124SOL    HW210380   9.571   3.398   2.800
36125SOL     OW10381   9.781   1.075   8.856
36125SOL    HW110382   9.846   1.047   8.920
36125SOL    HW210383   9.746   0.993   8.820
36126SOL     OW10384   4.241   4.415   6.853
36126SOL    HW110385   4.186   4.423   6.775
36126SOL    HW210386   4.212   4.333   6.894
36127SOL     OW10387   0.318   9.499  10.186
36127SOL    HW110388   0.230   9.502  10.224
36127SOL    HW210389   0.321   9.415  10.140
36128SOL     OW10390   2.053   7.947   5.176
36128SOL    HW110391   2.045   7.994   5.258
36128SOL    HW210392   1.972   7.896   5.170
36129SOL     OW10393   7.929   7.600  10.595
36129SOL    HW110394   7.927   7.636  10.506
36129SOL    HW210395   7.963   7.511  10.584
36130SOL     OW10396   6.150   5.418   7.289
36130SOL    HW110397   6.095   5.361   7.234
36130SOL    HW210398   6.111   5.413   7.376
36131SOL     OW10399   5.236  10.645   5.803
36131SOL    HW110400   5.267  10.559   5.775
36131SOL    HW210401   5.158  10.661   5.750
36132SOL     OW10402   9.341   7.152   2.006
36132SOL    HW110403   9.435   7.135   1.994
36132SOL    HW210404   9.325   7.134   2.098
36133SOL     OW10405   9.431   9.758   3.440
36133SOL    HW110406   9.362   9.693   3.452
36133SOL    HW210407   9.452   9.787   3.528
36134SOL     OW10408   1.862   9.241   1.179
36134SOL    HW110409   1.915   9.285   1.245
36134SOL    HW210410   1.807   9.310   1.142
36135SOL     OW10411   9.672   9.568   1.039
36135SOL    HW110412   9.699   9.509   0.968
36135SOL    HW210413   9.604   9.519   1.086
36136SOL     OW10414   7.635   7.014  10.394
36136SOL    HW110415   7.581   6.942  10.426
36136SOL    HW210416   7.576   7.089  10.389
36137SOL     OW10417   1.285   8.363   4.310
36137SOL    HW110418   1.354   8.352   4.375
36137SOL    HW210419   1.313   8.308   4.236
36138SOL     OW10420   2.629   5.718   9.333
36138SOL    HW110421   2.689   5.645   9.353
36138SOL    HW210422   2.654   5.746   9.245
36139SOL     OW10423   0.574   0.307   8.445
36139SOL    HW110424   0.558   0.231   8.501
36139SOL    HW210425   0.669   0.318   8.446
36140SOL     OW10426   3.833   7.964   6.465
36140SOL    HW110427   3.887   8.032   6.505
36140SOL    HW210428   3.819   7.900   6.534
36141SOL     OW10429   5.101   7.772   3.661
36141SOL    HW110430   5.025   7.775   3.603
36141SOL    HW210431   5.138   7.860   3.656
36142SOL     OW10432   1.276   5.103  10.201
36142SOL    HW110433   1.308   5.123  10.289
36142SOL    HW210434   1.302   5.178  10.148
36143SOL     OW10435   5.885   2.393   7.680
36143SOL    HW110436   5.837   2.323   7.636
36143SOL    HW210437   5.819   2.439   7.731
36144SOL     OW10438   9.483   3.845   0.111
36144SOL    HW110439   9.411   3.797   0.070
36144SOL    HW210440   9.446   3.878   0.193
36145SOL     OW10441   1.030   4.353   6.768
36145SOL    HW110442   1.041   4.353   6.673
36145SOL    HW210443   1.062   4.267   6.796
36146SOL     OW10444   7.414   7.744   5.361
36146SOL    HW110445   7.373   7.692   5.430
36146SOL    HW210446   7.449   7.679   5.299
36147SOL     OW10447   0.537   9.120   3.895
36147SOL    HW110448   0.448   9.144   3.917
36147SOL    HW210449   0.564   9.185   3.830
36148SOL     OW10450   9.000   4.195   9.360
36148SOL    HW110451   9.041   4.239   9.434
36148SOL    HW210452   8.938   4.259   9.325
36149SOL     OW10453   2.009   1.888   9.299
36149SOL    HW110454   1.931   1.838   9.274
36149SOL    HW210455   2.027   1.860   9.388
36150SOL     OW10456   5.556   9.136   9.946
36150SOL    HW110457   5.651   9.134   9.955
36150SOL    HW210458   5.539   9.201   9.878
36151SOL     OW10459   6.663   8.406   0.395
36151SOL    HW110460   6.754   8.375   0.393
36151SOL    HW210461   6.628   8.373   0.477
36152SOL     OW10462   7.251   4.640   4.011
36152SOL    HW110463   7.163   4.604   4.022
36152SOL    HW210464   7.305   4.591   4.073
36153SOL     OW10465   9.670   8.162  10.240
36153SOL    HW110466   9.632   8.095  10.183
36153SOL    HW210467   9.751   8.122  10.272
36154SOL     OW10468   9.544   5.059   7.515
36154SOL    HW110469   9.633   5.032   7.492
36154SOL    HW210470   9.552   5.098   7.602
36155SOL     OW10471   7.060   2.260   4.214
36155SOL    HW110472   7.028   2.219   4.294
36155SOL    HW210473   7.104   2.189   4.167
36156SOL     OW10474   4.846   9.186   9.011
36156SOL    HW110475   4.780   9.145   9.067
36156SOL    HW210476   4.835   9.280   9.024
36157SOL     OW10477  10.447  10.030   5.116
36157SOL    HW110478  10.406   9.987   5.191
36157SOL    HW210479  10.525   9.977   5.098
36158SOL     OW10480   4.916   2.524   0.275
36158SOL    HW110481   4.911   2.618   0.287
36158SOL    HW210482   4.880   2.487   0.356
36159SOL     OW10483   8.841   6.786  10.950
36159SOL    HW110484   8.844   6.847  10.876
36159SOL    HW210485   8.807   6.838  11.022
36160SOL     OW10486   8.066   9.342   9.892
36160SOL    HW110487   8.007   9.267   9.903
36160SOL    HW210488   8.124   9.317   9.820
36161SOL     OW10489   6.507  10.662  10.869
36161SOL    HW110490   6.595  10.679  10.834
36161SOL    HW210491   6.505  10.708  10.953
36162SOL     OW10492  11.051   7.353   8.693
36162SOL    HW110493  10.980   7.324   8.636
36162SOL    HW210494  11.049   7.291   8.766
36163SOL     OW10495   8.819   5.137   7.915
36163SOL    HW110496   8.761   5.061   7.905
36163SOL    HW210497   8.905   5.098   7.931
36164SOL     OW10498   6.586   9.153   9.781
36164SOL    HW110499   6.626   9.070   9.806
36164SOL    HW210500   6.660   9.213   9.770
36165SOL     OW10501   1.354   0.022   0.012
36165SOL    HW110502   1.421   0.082   0.045
36165SOL    HW210503   1.404  -0.050  -0.028
36166SOL     OW10504   1.218   8.699  10.926
36166SOL    HW110505   1.137   8.722  10.881
36166SOL    HW210506   1.219   8.603  10.926
36167SOL     OW10507   9.662   2.064  10.066
36167SOL    HW110508   9.675   2.015  10.147
36167SOL    HW210509   9.746   2.056  10.020
36168SOL     OW10510   0.535   9.267   9.776
36168SOL    HW110511   0.609   9.316   9.811
36168SOL    HW210512   0.463   9.330   9.774
36169SOL     OW10513  10.609   8.640   5.647
36169SOL    HW110514  10.677   8.672   5.706
36169SOL    HW210515  10.649   8.643   5.560
36170SOL     OW10516   2.020   9.263   2.447
36170SOL    HW110517   2.006   9.305   2.362
36170SOL    HW210518   1.971   9.181   2.441
36171SOL     OW10519   8.188   6.795   1.264
36171SOL    HW110520   8.217   6.834   1.181
36171SOL    HW210521   8.118   6.735   1.238
36172SOL     OW10522   3.906   3.249   6.718
36172SOL    HW110523   3.901   3.339   6.686
36172SOL    HW210524   3.815   3.224   6.733
36173SOL     OW10525   0.414   8.304   6.677
36173SOL    HW110526   0.340   8.339   6.627
36173SOL    HW210527   0.447   8.231   6.623
36174SOL     OW10528   9.064   3.748   2.048
36174SOL    HW110529   9.083   3.728   2.139
36174SOL    HW210530   8.972   3.724   2.037
36175SOL     OW10531   2.304   0.077  10.489
36175SOL    HW110532   2.384   0.034  10.521
36175SOL    HW210533   2.336   0.146  10.431
36176SOL     OW10534   5.022   8.733   4.768
36176SOL    HW110535   4.927   8.730   4.758
36176SOL    HW210536   5.048   8.814   4.725
36177SOL     OW10537   0.273   1.457  11.097
36177SOL    HW110538   0.193   1.410  11.122
36177SOL    HW210539   0.243   1.523  11.034
36178SOL     OW10540   2.229   7.999   0.260
36178SOL    HW110541   2.140   7.975   0.234
36178SOL    HW210542   2.277   7.916   0.260
36179SOL     OW10543   0.013   2.729   9.884
36179SOL    HW110544   0.001   2.655   9.944
36179SOL    HW210545   0.104   2.756   9.897
36180SOL     OW10546   8.170   0.621   3.867
36180SOL    HW110547   8.137   0.607   3.778
36180SOL    HW210548   8.189   0.532   3.899
36181SOL     OW10549   6.855  11.062   3.027
36181SOL    HW110550   6.768  11.089   2.999
36181SOL    HW210551   6.904  11.144   3.035
36182SOL     OW10552   0.381   8.033   3.620
36182SOL    HW110553   0.396   7.998   3.707
36182SOL    HW210554   0.422   7.969   3.561
36183SOL     OW10555   1.523   9.278   8.568
36183SOL    HW110556   1.455   9.339   8.540
36183SOL    HW210557   1.479   9.219   8.629
36184SOL     OW10558   5.749   4.502   8.736
36184SOL    HW110559   5.775   4.413   8.762
36184SOL    HW210560   5.666   4.490   8.689
36185SOL     OW10561   9.402   8.712   6.808
36185SOL    HW110562   9.418   8.617   6.802
36185SOL    HW210563   9.319   8.719   6.854
36186SOL     OW10564   0.528   2.532   0.443
36186SOL    HW110565   0.564   2.470   0.379
36186SOL    HW210566   0.596   2.599   0.452
36187SOL     OW10567   8.005   8.748   0.417
36187SOL    HW110568   7.914   8.740   0.447
36187SOL    HW210569   8.030   8.658   0.394
36188SOL     OW10570   4.402   3.805   4.781
36188SOL    HW110571   4.336   3.848   4.726
36188SOL    HW210572   4.425   3.725   4.733
36189SOL     OW10573   8.284   6.517   5.689
36189SOL    HW110574   8.282   6.586   5.623
36189SOL    HW210575   8.346   6.548   5.755
36190SOL     OW10576   7.226   4.656   1.213
36190SOL    HW110577   7.181   4.734   1.246
36190SOL    HW210578   7.311   4.688   1.183
36191SOL     OW10579   3.026   2.432  10.063
36191SOL    HW110580   3.024   2.524  10.037
36191SOL    HW210581   2.934   2.408  10.075
36192SOL     OW10582   3.834  10.959   9.149
36192SOL    HW110583   3.791  11.037   9.115
36192SOL    HW210584   3.919  10.990   9.179
36193SOL     OW10585   3.394   9.668   6.900
36193SOL    HW110586   3.318   9.632   6.945
36193SOL    HW210587   3.392   9.627   6.813
36194SOL     OW10588   6.536   0.358   2.747
36194SOL    HW110589   6.476   0.430   2.764
36194SOL    HW210590   6.592   0.389   2.676
36195SOL     OW10591  10.280   9.205   3.004
36195SOL    HW110592  10.241   9.289   2.981
36195SOL    HW210593  10.225   9.140   2.960
36196SOL     OW10594   2.586  10.516   2.777
36196SOL    HW110595   2.588  10.610   2.757
36196SOL    HW210596   2.574  10.474   2.691
36197SOL     OW10597   6.430   8.064   8.312
36197SOL    HW110598   6.521   8.087   8.293
36197SOL    HW210599   6.427   8.056   8.407
36198SOL     OW10600   0.085   0.701   8.992
36198SOL    HW110601   0.095   0.710   8.897
36198SOL    HW210602   0.162   0.744   9.028
36199SOL     OW10603   4.123   5.722   3.088
36199SOL    HW110604   4.032   5.746   3.102
36199SOL    HW210605   4.172   5.803   3.103
36200SOL     OW10606   0.218   8.540   4.250
36200SOL    HW110607   0.268   8.552   4.169
36200SOL    HW210608   0.279   8.562   4.320
36201SOL     OW10609   1.539   9.997   5.858
36201SOL    HW110610   1.634   9.993   5.870
36201SOL    HW210611   1.508  10.056   5.926
36202SOL     OW10612   1.185   4.462   8.713
36202SOL    HW110613   1.179   4.371   8.684
36202SOL    HW210614   1.241   4.459   8.790
36203SOL     OW10615   9.429  10.248   8.022
36203SOL    HW110616   9.487  10.201   7.962
36203SOL    HW210617   9.481  10.322   8.052
36204SOL     OW10618   8.205   9.682   6.222
36204SOL    HW110619   8.128   9.736   6.239
36204SOL    HW210620   8.197   9.657   6.129
36205SOL     OW10621   9.621   4.582   0.367
36205SOL    HW110622   9.617   4.487   0.377
36205SOL    HW210623   9.564   4.601   0.292
36206SOL     OW10624   0.793   4.930   0.064
36206SOL    HW110625   0.731   4.857   0.062
36206SOL    HW210626   0.742   5.003   0.099
36207SOL     OW10627   0.669   7.044   1.040
36207SOL    HW110628   0.691   7.000   1.122
36207SOL    HW210629   0.737   7.111   1.030
36208SOL     OW10630   0.059   5.413   2.073
36208SOL    HW110631  -0.010   5.432   2.009
36208SOL    HW210632   0.035   5.464   2.150
36209SOL     OW10633   9.353   2.411   2.182
36209SOL    HW110634   9.435   2.366   2.161
36209SOL    HW210635   9.291   2.340   2.201
36210SOL     OW10636   0.230   5.172   8.956
36210SOL    HW110637   0.184   5.110   9.013
36210SOL    HW210638   0.306   5.123   8.925
36211SOL     OW10639   9.523   4.335   1.420
36211SOL    HW110640   9.496   4.387   1.495
36211SOL    HW210641   9.593   4.385   1.379
36212SOL     OW10642   7.874   7.497   2.315
36212SOL    HW110643   7.854   7.436   2.244
36212SOL    HW210644   7.799   7.491   2.374
36213SOL     OW10645   4.038   6.258  10.049
36213SOL    HW110646   4.074   6.326   9.992
36213SOL    HW210647   3.996   6.196   9.988
36214SOL     OW10648   0.840   9.751   3.339
36214SOL    HW110649   0.797   9.806   3.273
36214SOL    HW210650   0.855   9.668   3.293
36215SOL     OW10651   8.009   1.939   8.386
36215SOL    HW110652   8.042   1.998   8.453
36215SOL    HW210653   8.001   1.994   8.308
36216SOL     OW10654   6.307   4.917   2.171
36216SOL    HW110655   6.310   4.880   2.083
36216SOL    HW210656   6.394   4.954   2.184
36217SOL     OW10657   1.451   3.493   7.201
36217SOL    HW110658   1.503   3.550   7.258
36217SOL    HW210659   1.419   3.551   7.132
36218SOL     OW10660   5.709   8.311   2.011
36218SOL    HW110661   5.645   8.242   1.995
36218SOL    HW210662   5.695   8.336   2.102
36219SOL     OW10663   9.000   7.272   3.701
36219SOL    HW110664   9.072   7.213   3.725
36219SOL    HW210665   8.937   7.215   3.657
36220SOL     OW10666  10.388   5.262   1.876
36220SOL    HW110667  10.380   5.349   1.913
36220SOL    HW210668  10.405   5.277   1.783
36221SOL     OW10669   5.018   0.711   1.468
36221SOL    HW110670   5.102   0.756   1.458
36221SOL    HW210671   4.952   0.779   1.458
36222SOL     OW10672  10.292  10.193   1.547
36222SOL    HW110673  10.246  10.179   1.464
36222SOL    HW210674  10.312  10.104   1.578
36223SOL     OW10675   2.297   5.287   5.148
36223SOL    HW110676   2.346   5.206   5.162
36223SOL    HW210677   2.363   5.356   5.155
36224SOL     OW10678   7.946   0.894   1.680
36224SOL    HW110679   8.038   0.919   1.669
36224SOL    HW210680   7.924   0.847   1.599
36225SOL     OW10681   9.998   1.330   6.264
36225SOL    HW110682   9.988   1.377   6.347
36225SOL    HW210683   9.925   1.268   6.263
36226SOL     OW10684   1.668   8.695  10.005
36226SOL    HW110685   1.580   8.676   9.972
36226SOL    HW210686   1.685   8.626  10.069
36227SOL     OW10687   8.623  10.902   5.663
36227SOL    HW110688   8.546  10.911   5.607
36227SOL    HW210689   8.692  10.873   5.603
36228SOL     OW10690   1.817   1.812   4.352
36228SOL    HW110691   1.766   1.752   4.298
36228SOL    HW210692   1.805   1.780   4.441
36229SOL     OW10693   3.838   9.557   9.212
36229SOL    HW110694   3.915   9.612   9.196
36229SOL    HW210695   3.802   9.589   9.294
36230SOL     OW10696   1.480   3.743   7.760
36230SOL    HW110697   1.503   3.835   7.763
36230SOL    HW210698   1.564   3.697   7.750
36231SOL     OW10699   1.021   8.317   3.338
36231SOL    HW110700   1.108   8.358   3.339
36231SOL    HW210701   0.960   8.389   3.348
36232SOL     OW10702  11.040  10.784   7.480
36232SOL    HW110703  11.078  10.712   7.529
36232SOL    HW210704  11.108  10.851   7.480
36233SOL     OW10705   0.199   0.522   5.897
36233SOL    HW110706   0.268   0.588   5.898
36233SOL    HW210707   0.235   0.450   5.845
36234SOL     OW10708   8.152   2.503   5.413
36234SOL    HW110709   8.115   2.541   5.333
36234SOL    HW210710   8.133   2.409   5.405
36235SOL     OW10711   7.208   5.320   8.706
36235SOL    HW110712   7.203   5.359   8.793
36235SOL    HW210713   7.181   5.229   8.719
36236SOL     OW10714   8.954   8.937   3.853
36236SOL    HW110715   9.014   8.889   3.910
36236SOL    HW210716   8.928   8.872   3.787
36237SOL     OW10717   2.126  10.094   1.552
36237SOL    HW110718   2.195  10.131   1.497
36237SOL    HW210719   2.153  10.114   1.641
36238SOL     OW10720   1.742   1.560  10.735
36238SOL    HW110721   1.735   1.491  10.801
36238SOL    HW210722   1.702   1.636  10.776
36239SOL     OW10723   3.630   4.688   5.824
36239SOL    HW110724   3.650   4.642   5.742
36239SOL    HW210725   3.604   4.618   5.884
36240SOL     OW10726   3.143  10.850   9.544
36240SOL    HW110727   3.216  10.811   9.496
36240SOL    HW210728   3.170  10.941   9.559
36241SOL     OW10729   1.491   6.971   9.010
36241SOL    HW110730   1.439   7.028   9.066
36241SOL    HW210731   1.451   6.884   9.021
36242SOL     OW10732   6.558   4.124   7.779
36242SOL    HW110733   6.602   4.089   7.857
36242SOL    HW210734   6.593   4.212   7.769
36243SOL     OW10735   1.097  10.182   0.021
36243SOL    HW110736   1.065  10.171  -0.068
36243SOL    HW210737   1.116  10.093   0.051
36244SOL     OW10738  10.428   9.959  10.891
36244SOL    HW110739  10.381   9.918  10.818
36244SOL    HW210740  10.517   9.972  10.857
36245SOL     OW10741   9.672   2.315   9.336
36245SOL    HW110742   9.645   2.223   9.345
36245SOL    HW210743   9.618   2.362   9.399
36246SOL     OW10744   1.853  10.859   0.289
36246SOL    HW110745   1.911  10.912   0.344
36246SOL    HW210746   1.793  10.817   0.350
36247SOL     OW10747  10.843   2.607   8.163
36247SOL    HW110748  10.762   2.652   8.139
36247SOL    HW210749  10.823   2.562   8.245
36248SOL     OW10750   9.729   2.389   9.083
36248SOL    HW110751   9.706   2.401   9.175
36248SOL    HW210752   9.770   2.472   9.057
36249SOL     OW10753   0.108   7.849   8.495
36249SOL    HW110754   0.122   7.941   8.516
36249SOL    HW210755   0.130   7.842   8.402
36250SOL     OW10756   0.766   8.082   8.486
36250SOL    HW110757   0.771   7.986   8.477
36250SOL    HW210758   0.720   8.096   8.568
36251SOL     OW10759   0.139   2.454   6.177
36251SOL    HW110760   0.203   2.514   6.215
36251SOL    HW210761   0.191   2.385   6.136
36252SOL     OW10762   6.244   7.001   8.339
36252SOL    HW110763   6.194   6.920   8.354
36252SOL    HW210764   6.178   7.069   8.330
36253SOL     OW10765   0.415  10.735   8.896
36253SOL    HW110766   0.461  10.726   8.812
36253SOL    HW210767   0.342  10.794   8.877
36254SOL     OW10768   5.329  10.591   4.423
36254SOL    HW110769   5.241  10.580   4.388
36254SOL    HW210770   5.364  10.502   4.430
36255SOL     OW10771   2.266   9.028   7.577
36255SOL    HW110772   2.286   9.082   7.653
36255SOL    HW210773   2.234   8.945   7.613
36256SOL     OW10774   3.949   6.954   8.094
36256SOL    HW110775   3.996   6.954   8.177
36256SOL    HW210776   4.010   6.994   8.032
36257SOL     OW10777   8.356   9.913   6.144
36257SOL    HW110778   8.304   9.969   6.201
36257SOL    HW210779   8.354   9.827   6.186
36258SOL     OW10780   4.786   9.474  10.687
36258SOL    HW110781   4.880   9.456  10.685
36258SOL    HW210782   4.780   9.569  10.696
36259SOL     OW10783   1.518   1.859   1.060
36259SOL    HW110784   1.524   1.766   1.038
36259SOL    HW210785   1.608   1.883   1.083
36260SOL     OW10786   0.041   4.286   1.017
36260SOL    HW110787  -0.025   4.236   1.065
36260SOL    HW210788   0.087   4.336   1.084
36261SOL     OW10789   2.806   6.015   5.600
36261SOL    HW110790   2.858   6.077   5.651
36261SOL    HW210791   2.796   6.056   5.514
36262SOL     OW10792  10.680   9.312   3.886
36262SOL    HW110793  10.721   9.286   3.968
36262SOL    HW210794  10.624   9.386   3.909
36263SOL     OW10795   1.840   4.270   1.015
36263SOL    HW110796   1.789   4.190   1.003
36263SOL    HW210797   1.927   4.249   0.980
36264SOL     OW10798   1.360   7.411   7.495
36264SOL    HW110799   1.456   7.408   7.501
36264SOL    HW210800   1.336   7.330   7.450
36265SOL     OW10801  11.040  10.088   9.128
36265SOL    HW110802  11.132  10.063   9.122
36265SOL    HW210803  11.025  10.143   9.051
36266SOL     OW10804   4.140   9.885   8.104
36266SOL    HW110805   4.080   9.819   8.139
36266SOL    HW210806   4.227   9.847   8.116
36267SOL     OW10807   9.087   7.154   3.419
36267SOL    HW110808   9.130   7.075   3.451
36267SOL    HW210809   9.127   7.170   3.333
36268SOL     OW10810   2.661   7.199   4.853
36268SOL    HW110811   2.660   7.144   4.774
36268SOL    HW210812   2.673   7.137   4.925
36269SOL     OW10813  10.173   1.651   5.842
36269SOL    HW110814  10.201   1.632   5.931
36269SOL    HW210815  10.254   1.668   5.794
36270SOL     OW10816   4.566   1.180   1.893
36270SOL    HW110817   4.628   1.110   1.914
36270SOL    HW210818   4.552   1.172   1.798
36271SOL     OW10819   5.510   6.776   7.920
36271SOL    HW110820   5.489   6.837   7.849
36271SOL    HW210821   5.425   6.741   7.948
36272SOL     OW10822   2.454   2.748   8.183
36272SOL    HW110823   2.397   2.708   8.117
36272SOL    HW210824   2.396   2.771   8.255
36273SOL     OW10825   7.183   2.839  10.724
36273SOL    HW110826   7.092   2.837  10.755
36273SOL    HW210827   7.208   2.931  10.727
36274SOL     OW10828   2.152   1.540  10.753
36274SOL    HW110829   2.125   1.458  10.795
36274SOL    HW210830   2.246   1.529  10.738
36275SOL     OW10831   9.510   9.975   0.227
36275SOL    HW110832   9.594   9.978   0.180
36275SOL    HW210833   9.505  10.058   0.273
36276SOL     OW10834   3.277   7.279  10.169
36276SOL    HW110835   3.182   7.278  10.166
36276SOL    HW210836   3.302   7.186  10.162
36277SOL     OW10837   5.340   8.766  10.191
36277SOL    HW110838   5.352   8.705  10.118
36277SOL    HW210839   5.428   8.778  10.225
36278SOL     OW10840   7.159   3.254   3.224
36278SOL    HW110841   7.147   3.345   3.249
36278SOL    HW210842   7.110   3.204   3.289
36279SOL     OW10843   9.306  11.084   7.185
36279SOL    HW110844   9.260  11.112   7.263
36279SOL    HW210845   9.397  11.109   7.200
36280SOL     OW10846  10.043  10.036   4.009
36280SOL    HW110847  10.076  10.018   3.921
36280SOL    HW210848  10.059   9.955   4.057
36281SOL     OW10849  10.950   6.226   1.388
36281SOL    HW110850  11.033   6.265   1.414
36281SOL    HW210851  10.925   6.170   1.462
36282SOL     OW10852   7.350   0.056   2.012
36282SOL    HW110853   7.433   0.009   2.002
36282SOL    HW210854   7.290  -0.009   2.049
36283SOL     OW10855   3.032   0.910   0.160
36283SOL    HW110856   3.005   1.001   0.157
36283SOL    HW210857   3.127   0.913   0.172
36284SOL     OW10858   3.758   9.536  10.815
36284SOL    HW110859   3.776   9.491  10.897
36284SOL    HW210860   3.687   9.485  10.775
36285SOL     OW10861   0.481   1.069   8.956
36285SOL    HW110862   0.533   0.988   8.958
36285SOL    HW210863   0.406   1.050   9.012
36286SOL     OW10864   3.224  10.785   9.198
36286SOL    HW110865   3.252  10.726   9.128
36286SOL    HW210866   3.135  10.758   9.218
36287SOL     OW10867   4.867   0.222   8.282
36287SOL    HW110868   4.793   0.210   8.223
36287SOL    HW210869   4.940   0.176   8.239
36288SOL     OW10870   2.327   8.157   4.936
36288SOL    HW110871   2.312   8.240   4.891
36288SOL    HW210872   2.284   8.091   4.881
36289SOL     OW10873   4.489   4.612   3.917
36289SOL    HW110874   4.526   4.683   3.969
36289SOL    HW210875   4.481   4.648   3.829
36290SOL     OW10876   9.785   8.745   3.527
36290SOL    HW110877   9.855   8.804   3.499
36290SOL    HW210878   9.786   8.750   3.622
36291SOL     OW10879  10.464   3.452   2.882
36291SOL    HW110880  10.443   3.423   2.971
36291SOL    HW210881  10.529   3.521   2.893
36292SOL     OW10882   7.751  10.533   3.504
36292SOL    HW110883   7.678  10.471   3.501
36292SOL    HW210884   7.742  10.585   3.424
36293SOL     OW10885  10.343  10.701   2.009
36293SOL    HW110886  10.395  10.622   1.993
36293SOL    HW210887  10.358  10.756   1.932
36294SOL     OW10888   0.918  10.210   2.389
36294SOL    HW110889   0.884  10.201   2.478
36294SOL    HW210890   0.939  10.120   2.362
36295SOL     OW10891   2.509   3.655   0.727
36295SOL    HW110892   2.579   3.591   0.742
36295SOL    HW210893   2.554   3.729   0.686
36296SOL     OW10894   0.826   8.483   3.993
36296SOL    HW110895   0.896   8.547   4.004
36296SOL    HW210896   0.770   8.495   4.070
36297SOL     OW10897   0.854   7.928   1.256
36297SOL    HW110898   0.789   7.976   1.307
36297SOL    HW210899   0.930   7.922   1.314
36298SOL     OW10900   7.585   9.798   1.247
36298SOL    HW110901   7.643   9.872   1.265
36298SOL    HW210902   7.623   9.725   1.296
36299SOL     OW10903   3.452   4.376   1.479
36299SOL    HW110904   3.460   4.320   1.556
36299SOL    HW210905   3.360   4.369   1.453
36300SOL     OW10906   7.632   3.061   3.392
36300SOL    HW110907   7.652   3.121   3.464
36300SOL    HW210908   7.539   3.043   3.401
36301SOL     OW10909   4.329   9.509   3.300
36301SOL    HW110910   4.425   9.504   3.304
36301SOL    HW210911   4.302   9.520   3.391
36302SOL     OW10912   4.692  10.323   7.108
36302SOL    HW110913   4.784  10.296   7.114
36302SOL    HW210914   4.694  10.418   7.114
36303SOL     OW10915   4.090   8.236   3.006
36303SOL    HW110916   4.087   8.146   3.040
36303SOL    HW210917   4.181   8.248   2.979
36304SOL     OW10918   0.629   0.855   7.265
36304SOL    HW110919   0.671   0.856   7.179
36304SOL    HW210920   0.661   0.934   7.308
36305SOL     OW10921   6.650  10.924   8.571
36305SOL    HW110922   6.687  10.969   8.647
36305SOL    HW210923   6.722  10.921   8.508
36306SOL     OW10924   9.343   0.204   7.998
36306SOL    HW110925   9.369   0.181   7.909
36306SOL    HW210926   9.329   0.298   7.995
36307SOL     OW10927   5.136  10.033   6.015
36307SOL    HW110928   5.132  10.115   5.967
36307SOL    HW210929   5.095  10.052   6.099
36308SOL     OW10930   0.346   9.509   8.588
36308SOL    HW110931   0.385   9.585   8.544
36308SOL    HW210932   0.342   9.533   8.680
36309SOL     OW10933   5.146  10.908   8.780
36309SOL    HW110934   5.074  10.847   8.765
36309SOL    HW210935   5.179  10.928   8.692
36310SOL     OW10936   9.137   6.854   1.231
36310SOL    HW110937   9.136   6.800   1.152
36310SOL    HW210938   9.077   6.809   1.291
36311SOL     OW10939   9.812   5.037   8.086
36311SOL    HW110940   9.797   4.943   8.074
36311SOL    HW210941   9.853   5.064   8.004
36312SOL     OW10942   0.052   2.951   8.029
36312SOL    HW110943  -0.024   3.008   8.015
36312SOL    HW210944   0.019   2.880   8.085
36313SOL     OW10945   0.487   8.800   5.341
36313SOL    HW110946   0.523   8.886   5.361
36313SOL    HW210947   0.392   8.813   5.338
36314SOL     OW10948   5.036   5.394   2.986
36314SOL    HW110949   5.122   5.397   3.028
36314SOL    HW210950   5.030   5.305   2.950
36315SOL     OW10951   9.501   6.098   1.865
36315SOL    HW110952   9.454   6.078   1.946
36315SOL    HW210953   9.496   6.017   1.813
36316SOL     OW10954   1.138   6.600   3.567
36316SOL    HW110955   1.114   6.507   3.564
36316SOL    HW210956   1.199   6.611   3.493
36317SOL     OW10957   4.339   4.032   9.129
36317SOL    HW110958   4.270   3.967   9.115
36317SOL    HW210959   4.349   4.036   9.224
36318SOL     OW10960  10.792   8.183   8.084
36318SOL    HW110961  10.857   8.253   8.085
36318SOL    HW210962  10.818   8.125   8.155
36319SOL     OW10963   0.140   8.159   8.138
36319SOL    HW110964   0.208   8.223   8.116
36319SOL    HW210965   0.170   8.077   8.098
36320SOL     OW10966   8.174   2.136   9.772
36320SOL    HW110967   8.258   2.103   9.805
36320SOL    HW210968   8.118   2.058   9.768
36321SOL     OW10969   2.850   9.338   9.382
36321SOL    HW110970   2.880   9.429   9.381
36321SOL    HW210971   2.755   9.344   9.390
36322SOL     OW10972   3.100   9.246   3.296
36322SOL    HW110973   3.114   9.151   3.296
36322SOL    HW210974   3.174   9.281   3.245
36323SOL     OW10975   8.652   6.891   8.916
36323SOL    HW110976   8.587   6.961   8.913
36323SOL    HW210977   8.616   6.827   8.977
36324SOL     OW10978   0.133  10.686   6.521
36324SOL    HW110979   0.109  10.738   6.597
36324SOL    HW210980   0.169  10.605   6.557
36325SOL     OW10981   1.027   0.400   1.373
36325SOL    HW110982   1.062   0.312   1.359
36325SOL    HW210983   1.001   0.401   1.465
36326SOL     OW10984   4.037   1.564  10.165
36326SOL    HW110985   3.990   1.506  10.225
36326SOL    HW210986   4.023   1.525  10.078
36327SOL     OW10987   9.670   9.192   1.126
36327SOL    HW110988   9.730   9.177   1.053
36327SOL    HW210989   9.610   9.259   1.094
36328SOL     OW10990  10.444   6.025   2.504
36328SOL    HW110991  10.397   5.952   2.463
36328SOL    HW210992  10.496   5.984   2.573
36329SOL     OW10993   0.853   0.904   7.092
36329SOL    HW110994   0.913   0.928   7.162
36329SOL    HW210995   0.876   0.813   7.071
36330SOL     OW10996   8.631   5.639   6.733
36330SOL    HW110997   8.647   5.702   6.803
36330SOL    HW210998   8.586   5.566   6.776
36331SOL     OW10999   5.328   1.856  10.533
36331SOL    HW111000   5.269   1.889  10.600
36331SOL    HW211001   5.289   1.885  10.450
36332SOL     OW11002   4.214   8.187   6.553
36332SOL    HW111003   4.254   8.252   6.611
36332SOL    HW211004   4.289   8.139   6.517
36333SOL     OW11005   5.587   1.599   4.584
36333SOL    HW111006   5.648   1.611   4.657
36333SOL    HW211007   5.590   1.682   4.537
36334SOL     OW11008   7.303   8.052   2.449
36334SOL    HW111009   7.361   8.002   2.506
36334SOL    HW211010   7.319   8.016   2.361
36335SOL     OW11011   7.834   8.781   2.317
36335SOL    HW111012   7.917   8.827   2.301
36335SOL    HW211013   7.848   8.734   2.399
36336SOL     OW11014   1.818   0.298   8.800
36336SOL    HW111015   1.889   0.345   8.756
36336SOL    HW211016   1.841   0.205   8.791
36337SOL     OW11017   8.454   5.995   2.117
36337SOL    HW111018   8.480   5.958   2.201
36337SOL    HW211019   8.529   6.048   2.090
36338SOL     OW11020   2.466   2.534  10.001
36338SOL    HW111021   2.528   2.584   9.948
36338SOL    HW211022   2.450   2.589  10.077
36339SOL     OW11023  10.236   0.232   1.707
36339SOL    HW111024  10.316   0.256   1.660
36339SOL    HW211025  10.213   0.309   1.758
36340SOL     OW11026   9.165  10.203   0.120
36340SOL    HW111027   9.110  10.212   0.042
36340SOL    HW211028   9.161  10.288   0.163
36341SOL     OW11029   2.279   9.874   0.562
36341SOL    HW111030   2.200   9.842   0.604
36341SOL    HW211031   2.318   9.933   0.626
36342SOL     OW11032   7.715   1.893   0.659
36342SOL    HW111033   7.686   1.803   0.643
36342SOL    HW211034   7.811   1.887   0.660
36343SOL     OW11035   9.456  10.727   4.022
36343SOL    HW111036   9.379  10.746   3.969
36343SOL    HW211037   9.515  10.801   4.005
36344SOL     OW11038   7.131   1.133   1.260
36344SOL    HW111039   7.165   1.180   1.184
36344SOL    HW211040   7.093   1.053   1.224
36345SOL     OW11041   9.922   3.023   8.988
36345SOL    HW111042   9.907   2.935   9.024
36345SOL    HW211043   9.837   3.050   8.954
36346SOL     OW11044   6.972   4.069   6.769
36346SOL    HW111045   6.997   4.156   6.739
36346SOL    HW211046   6.902   4.084   6.832
36347SOL     OW11047   0.238   1.636   0.547
36347SOL    HW111048   0.205   1.676   0.466
36347SOL    HW211049   0.164   1.585   0.580
36348SOL     OW11050   8.471   0.017  10.234
36348SOL    HW111051   8.486  -0.077  10.250
36348SOL    HW211052   8.479   0.026  10.139
36349SOL     OW11053  10.059   4.488   8.311
36349SOL    HW111054  10.087   4.485   8.219
36349SOL    HW211055  10.101   4.566   8.346
36350SOL     OW11056   2.730   0.797  10.525
36350SOL    HW111057   2.763   0.777  10.612
36350SOL    HW211058   2.789   0.749  10.466
36351SOL     OW11059   0.589   7.402   0.861
36351SOL    HW111060   0.682   7.424   0.867
36351SOL    HW211061   0.564   7.379   0.950
36352SOL     OW11062   2.215   2.295   5.553
36352SOL    HW111063   2.168   2.344   5.620
36352SOL    HW211064   2.264   2.228   5.601
36353SOL     OW11065   7.851   9.326   3.260
36353SOL    HW111066   7.771   9.324   3.207
36353SOL    HW211067   7.880   9.234   3.261
36354SOL     OW11068   8.671   6.482   2.415
36354SOL    HW111069   8.751   6.441   2.450
36354SOL    HW211070   8.625   6.410   2.371
36355SOL     OW11071   2.330   7.200   2.304
36355SOL    HW111072   2.248   7.164   2.337
36355SOL    HW211073   2.379   7.123   2.275
36356SOL     OW11074   7.929   1.924   9.836
36356SOL    HW111075   7.871   1.959   9.768
36356SOL    HW211076   7.988   1.865   9.789
36357SOL     OW11077   4.710   2.945   3.278
36357SOL    HW111078   4.693   2.879   3.210
36357SOL    HW211079   4.636   2.937   3.338
36358SOL     OW11080   5.135   1.478   4.554
36358SOL    HW111081   5.194   1.503   4.625
36358SOL    HW211082   5.062   1.434   4.598
36359SOL     OW11083   9.474   2.328   1.187
36359SOL    HW111084   9.413   2.274   1.237
36359SOL    HW211085   9.461   2.416   1.221
36360SOL     OW11086   9.978   6.613  10.417
36360SOL    HW111087   9.921   6.588  10.344
36360SOL    HW211088  10.059   6.564  10.401
36361SOL     OW11089   0.178   6.019   5.328
36361SOL    HW111090   0.199   6.107   5.358
36361SOL    HW211091   0.253   5.965   5.355
36362SOL     OW11092   0.714   5.428   7.054
36362SOL    HW111093   0.743   5.353   7.001
36362SOL    HW211094   0.619   5.421   7.055
36363SOL     OW11095   5.117   5.365   0.577
36363SOL    HW111096   5.150   5.323   0.497
36363SOL    HW211097   5.195   5.379   0.631
36364SOL     OW11098   3.594   3.222   8.567
36364SOL    HW111099   3.665   3.272   8.608
36364SOL    HW211100   3.634   3.183   8.489
36365SOL     OW11101  10.140   7.797   9.501
36365SOL    HW111102  10.139   7.825   9.409
36365SOL    HW211103  10.072   7.850   9.543
36366SOL     OW11104   6.948   8.513   7.259
36366SOL    HW111105   6.909   8.510   7.346
36366SOL    HW211106   6.936   8.603   7.230
36367SOL     OW11107   2.507   5.237   1.295
36367SOL    HW111108   2.568   5.304   1.265
36367SOL    HW211109   2.508   5.244   1.390
36368SOL     OW11110   1.909   5.023   7.408
36368SOL    HW111111   1.967   5.099   7.405
36368SOL    HW211112   1.920   4.988   7.496
36369SOL     OW11113  10.498   9.662   6.485
36369SOL    HW111114  10.509   9.592   6.420
36369SOL    HW211115  10.404   9.662   6.504
36370SOL     OW11116  11.091  11.061   9.047
36370SOL    HW111117  11.014  11.017   9.082
36370SOL    HW211118  11.099  11.141   9.098
36371SOL     OW11119   9.853   5.758   7.658
36371SOL    HW111120   9.877   5.832   7.603
36371SOL    HW211121   9.922   5.693   7.642
36372SOL     OW11122   5.905   4.623  10.207
36372SOL    HW111123   5.831   4.671  10.170
36372SOL    HW211124   5.982   4.658  10.162
36373SOL     OW11125  10.603   4.640  10.189
36373SOL    HW111126  10.648   4.556  10.198
36373SOL    HW211127  10.663   4.703  10.228
36374SOL     OW11128   8.190   5.161   8.284
36374SOL    HW111129   8.251   5.115   8.226
36374SOL    HW211130   8.150   5.228   8.228
36375SOL     OW11131   8.387   3.869   2.918
36375SOL    HW111132   8.421   3.951   2.952
36375SOL    HW211133   8.465   3.821   2.889
36376SOL     OW11134   2.705   9.384   6.509
36376SOL    HW111135   2.663   9.466   6.483
36376SOL    HW211136   2.673   9.367   6.597
36377SOL     OW11137   8.465  10.624   0.671
36377SOL    HW111138   8.401  10.636   0.741
36377SOL    HW211139   8.512  10.544   0.694
36378SOL     OW11140   0.080   7.115   8.405
36378SOL    HW111141   0.152   7.055   8.384
36378SOL    HW211142   0.110   7.164   8.481
36379SOL     OW11143   0.731   1.998   0.179
36379SOL    HW111144   0.639   2.008   0.202
36379SOL    HW211145   0.739   2.035   0.091
36380SOL     OW11146   0.412  10.003   9.765
36380SOL    HW111147   0.320  10.010   9.791
36380SOL    HW211148   0.440  10.093   9.751
36381SOL     OW11149   8.568   3.676   9.387
36381SOL    HW111150   8.527   3.596   9.420
36381SOL    HW211151   8.526   3.747   9.435
36382SOL     OW11152   0.223   2.276   9.008
36382SOL    HW111153   0.156   2.344   9.007
36382SOL    HW211154   0.202   2.221   8.932
36383SOL     OW11155   2.192   3.423   6.148
36383SOL    HW111156   2.214   3.432   6.240
36383SOL    HW211157   2.097   3.435   6.144
36384SOL     OW11158   5.686   2.923   6.951
36384SOL    HW111159   5.640   2.875   6.882
36384SOL    HW211160   5.721   3.000   6.906
36385SOL     OW11161  10.080   6.617   5.386
36385SOL    HW111162  10.131   6.579   5.457
36385SOL    HW211163   9.989   6.603   5.411
36386SOL     OW11164  10.731   3.682   2.131
36386SOL    HW111165  10.739   3.768   2.090
36386SOL    HW211166  10.667   3.635   2.077
36387SOL     OW11167   7.607   4.020   8.875
36387SOL    HW111168   7.593   4.013   8.969
36387SOL    HW211169   7.534   4.073   8.843
36388SOL     OW11170   5.431   8.974   1.093
36388SOL    HW111171   5.346   8.944   1.124
36388SOL    HW211172   5.412   9.055   1.046
36389SOL     OW11173   3.705   3.935   6.655
36389SOL    HW111174   3.640   3.992   6.614
36389SOL    HW211175   3.789   3.976   6.635
36390SOL     OW11176   5.026   9.328   0.201
36390SOL    HW111177   5.007   9.415   0.167
36390SOL    HW211178   4.961   9.314   0.269
36391SOL     OW11179   0.139   9.434   6.439
36391SOL    HW111180   0.069   9.373   6.462
36391SOL    HW211181   0.146   9.428   6.343
36392SOL     OW11182   5.265   3.892   8.728
36392SOL    HW111183   5.337   3.910   8.788
36392SOL    HW211184   5.257   3.971   8.675
36393SOL     OW11185   9.802  10.970   4.276
36393SOL    HW111186   9.811  10.995   4.184
36393SOL    HW211187   9.726  11.019   4.307
36394SOL     OW11188   9.207   7.308   3.020
36394SOL    HW111189   9.117   7.335   3.036
36394SOL    HW211190   9.216   7.312   2.924
36395SOL     OW11191   0.836   9.756   3.629
36395SOL    HW111192   0.829   9.779   3.536
36395SOL    HW211193   0.914   9.701   3.634
36396SOL     OW11194   9.270   1.010   0.218
36396SOL    HW111195   9.285   0.919   0.244
36396SOL    HW211196   9.179   1.012   0.190
36397SOL     OW11197   9.449   1.731   9.716
36397SOL    HW111198   9.454   1.671   9.641
36397SOL    HW211199   9.536   1.725   9.757
36398SOL     OW11200   0.733   5.377   0.194
36398SOL    HW111201   0.676   5.347   0.124
36398SOL    HW211202   0.698   5.335   0.273
36399SOL     OW11203  10.163   9.172   8.221
36399SOL    HW111204  10.165   9.175   8.316
36399SOL    HW211205  10.070   9.170   8.199
36400SOL     OW11206  10.606  10.382  10.968
36400SOL    HW111207  10.570  10.339  10.890
36400SOL    HW211208  10.701  10.375  10.958
36401SOL     OW11209   9.262   0.466  10.963
36401SOL    HW111210   9.286   0.425  11.046
36401SOL    HW211211   9.345   0.477  10.917
36402SOL     OW11212  10.002  10.194   4.240
36402SOL    HW111213  10.026  10.161   4.153
36402SOL    HW211214   9.916  10.156   4.257
36403SOL     OW11215   9.405   5.138   1.848
36403SOL    HW111216   9.318   5.139   1.888
36403SOL    HW211217   9.459   5.089   1.910
36404SOL     OW11218   0.094  10.384   2.080
36404SOL    HW111219   0.121  10.346   1.996
36404SOL    HW211220   0.173  10.426   2.114
36405SOL     OW11221   5.289   0.967   0.203
36405SOL    HW111222   5.212   1.022   0.197
36405SOL    HW211223   5.316   0.973   0.294
36406SOL     OW11224  10.265  10.628  11.096
36406SOL    HW111225  10.274  10.649  11.189
36406SOL    HW211226  10.351  10.649  11.058
36407SOL     OW11227   8.396   1.990   6.317
36407SOL    HW111228   8.486   1.967   6.342
36407SOL    HW211229   8.401   2.006   6.222
36408SOL     OW11230   2.065   2.001   0.679
36408SOL    HW111231   2.092   1.938   0.746
36408SOL    HW211232   1.979   2.032   0.708
36409SOL     OW11233   1.456   3.465   0.994
36409SOL    HW111234   1.397   3.496   1.063
36409SOL    HW211235   1.422   3.505   0.914
36410SOL     OW11236  10.056   9.325   2.892
36410SOL    HW111237  10.021   9.275   2.818
36410SOL    HW211238  10.044   9.416   2.866
36411SOL     OW11239   0.033  10.116   0.912
36411SOL    HW111240  -0.021  10.181   0.956
36411SOL    HW211241   0.114  10.161   0.891
36412SOL     OW11242  10.954   9.413   3.265
36412SOL    HW111243  11.008   9.414   3.344
36412SOL    HW211244  10.891   9.484   3.276
36413SOL     OW11245   7.823   9.728  10.411
36413SOL    HW111246   7.816   9.823  10.404
36413SOL    HW211247   7.909   9.713  10.450
36414SOL     OW11248   8.482   3.822   9.708
36414SOL    HW111249   8.519   3.858   9.627
36414SOL    HW211250   8.393   3.796   9.684
36415SOL     OW11251   1.703   4.336   0.157
36415SOL    HW111252   1.650   4.256   0.149
36415SOL    HW211253   1.745   4.346   0.072
36416SOL     OW11254   6.261   6.782   0.256
36416SOL    HW111255   6.330   6.792   0.190
36416SOL    HW211256   6.180   6.781   0.205
36417SOL     OW11257   9.069   8.834   8.761
36417SOL    HW111258   9.161   8.826   8.787
36417SOL    HW211259   9.023   8.859   8.841
36418SOL     OW11260   3.918   4.463   4.589
36418SOL    HW111261   3.843   4.518   4.608
36418SOL    HW211262   3.905   4.435   4.498
36419SOL     OW11263   8.299   1.674   4.056
36419SOL    HW111264   8.293   1.762   4.092
36419SOL    HW211265   8.367   1.680   3.988
36420SOL     OW11266   0.101   6.716   2.758
36420SOL    HW111267   0.134   6.786   2.702
36420SOL    HW211268   0.006   6.725   2.754
36421SOL     OW11269   4.578   7.430   0.098
36421SOL    HW111270   4.548   7.360   0.040
36421SOL    HW211271   4.665   7.401   0.127
36422SOL     OW11272   9.387   5.717   9.567
36422SOL    HW111273   9.470   5.751   9.533
36422SOL    HW211274   9.383   5.749   9.657
36423SOL     OW11275   9.559   3.024   3.869
36423SOL    HW111276   9.633   3.084   3.863
36423SOL    HW211277   9.512   3.035   3.786
36424SOL     OW11278  10.704   6.880   1.268
36424SOL    HW111279  10.701   6.803   1.325
36424SOL    HW211280  10.797   6.898   1.256
36425SOL     OW11281   1.364   4.346  10.873
36425SOL    HW111282   1.394   4.372  10.960
36425SOL    HW211283   1.281   4.301  10.888
36426SOL     OW11284   6.068   3.648   8.796
36426SOL    HW111285   5.990   3.597   8.817
36426SOL    HW211286   6.093   3.688   8.879
36427SOL     OW11287   6.084   9.868   0.112
36427SOL    HW111288   6.122   9.947   0.074
36427SOL    HW211289   6.121   9.796   0.061
36428SOL     OW11290   6.384   8.859   1.100
36428SOL    HW111291   6.465   8.849   1.150
36428SOL    HW211292   6.363   8.770   1.070
36429SOL     OW11293  10.472   5.685   1.449
36429SOL    HW111294  10.525   5.682   1.369
36429SOL    HW211295  10.382   5.684   1.417
36430SOL     OW11296   7.723   4.892   3.529
36430SOL    HW111297   7.665   4.938   3.590
36430SOL    HW211298   7.683   4.805   3.518
36431SOL     OW11299   4.506   6.356  10.673
36431SOL    HW111300   4.448   6.424  10.640
36431SOL    HW211301   4.451   6.278  10.681
36432SOL     OW11302   2.122   8.092   4.225
36432SOL    HW111303   2.132   8.073   4.131
36432SOL    HW211304   2.029   8.080   4.242
36433SOL     OW11305  10.946   4.554  10.115
36433SOL    HW111306  11.009   4.493  10.154
36433SOL    HW211307  10.976   4.640  10.142
36434SOL     OW11308   7.670   6.671   8.028
36434SOL    HW111309   7.628   6.598   7.981
36434SOL    HW211310   7.733   6.628   8.086
36435SOL     OW11311   7.604   1.054   5.258
36435SOL    HW111312   7.634   1.143   5.275
36435SOL    HW211313   7.517   1.064   5.220
36436SOL     OW11314   1.796   7.862   5.096
36436SOL    HW111315   1.740   7.896   5.165
36436SOL    HW211316   1.754   7.889   5.014
36437SOL     OW11317   1.912   2.585   0.891
36437SOL    HW111318   1.970   2.530   0.838
36437SOL    HW211319   1.965   2.610   0.966
36438SOL     OW11320   3.455   1.223   0.265
36438SOL    HW111321   3.543   1.186   0.266
36438SOL    HW211322   3.458   1.290   0.197
36439SOL     OW11323   5.380   8.115   8.332
36439SOL    HW111324   5.340   8.109   8.418
36439SOL    HW211325   5.446   8.045   8.331
36440SOL     OW11326   9.785   6.632   3.756
36440SOL    HW111327   9.782   6.726   3.743
36440SOL    HW211328   9.790   6.621   3.851
36441SOL     OW11329   5.543   3.287   7.764
36441SOL    HW111330   5.554   3.372   7.722
36441SOL    HW211331   5.453   3.288   7.797
36442SOL     OW11332   2.221   1.809   1.966
36442SOL    HW111333   2.155   1.873   1.940
36442SOL    HW211334   2.267   1.788   1.884
36443SOL     OW11335   6.653   4.990  10.080
36443SOL    HW111336   6.691   4.902  10.087
36443SOL    HW211337   6.720   5.048  10.117
36444SOL     OW11338   4.180   0.202   9.498
36444SOL    HW111339   4.100   0.218   9.548
36444SOL    HW211340   4.233   0.280   9.510
36445SOL     OW11341   9.066  10.589   3.435
36445SOL    HW111342   9.004  10.622   3.370
36445SOL    HW211343   9.112  10.518   3.390
36446SOL     OW11344   9.878   9.012   0.092
36446SOL    HW111345   9.927   9.094   0.091
36446SOL    HW211346   9.846   9.002   0.003
36447SOL     OW11347   8.913   4.583   4.635
36447SOL    HW111348   8.831   4.589   4.587
36447SOL    HW211349   8.887   4.578   4.727
36448SOL     OW11350   9.858  10.285   6.751
36448SOL    HW111351   9.919  10.265   6.680
36448SOL    HW211352   9.914  10.302   6.827
36449SOL     OW11353   5.843  11.019   2.989
36449SOL    HW111354   5.889  11.077   2.928
36449SOL    HW211355   5.888  10.935   2.979
36450SOL     OW11356   1.170   2.705   7.910
36450SOL    HW111357   1.094   2.697   7.853
36450SOL    HW211358   1.241   2.732   7.851
36451SOL     OW11359   9.024   1.347   2.993
36451SOL    HW111360   9.052   1.410   2.927
36451SOL    HW211361   8.937   1.319   2.964
36452SOL     OW11362   3.350  11.067   6.020
36452SOL    HW111363   3.269  11.116   6.033
36452SOL    HW211364   3.327  10.977   6.042
36453SOL     OW11365   4.612   0.062   0.423
36453SOL    HW111366   4.573   0.022   0.345
36453SOL    HW211367   4.618  -0.010   0.486
36454SOL     OW11368  10.163   9.236   4.571
36454SOL    HW111369  10.073   9.236   4.602
36454SOL    HW211370  10.203   9.312   4.612
36455SOL     OW11371   8.781   7.492   2.911
36455SOL    HW111372   8.777   7.562   2.846
36455SOL    HW211373   8.692   7.486   2.946
36456SOL     OW11374   9.028   2.623   5.858
36456SOL    HW111375   8.951   2.592   5.906
36456SOL    HW211376   9.081   2.544   5.843
36457SOL     OW11377   5.133   3.448   8.642
36457SOL    HW111378   5.104   3.536   8.665
36457SOL    HW211379   5.226   3.458   8.621
36458SOL     OW11380   0.593   0.980   3.337
36458SOL    HW111381   0.653   0.910   3.364
36458SOL    HW211382   0.641   1.028   3.269
36459SOL     OW11383   4.584   6.766   1.730
36459SOL    HW111384   4.633   6.745   1.809
36459SOL    HW211385   4.497   6.791   1.761
36460SOL     OW11386   2.418   6.923  10.509
36460SOL    HW111387   2.465   6.983  10.451
36460SOL    HW211388   2.330   6.919  10.472
36461SOL     OW11389   1.876   7.694  10.750
36461SOL    HW111390   1.924   7.712  10.831
36461SOL    HW211391   1.790   7.665  10.779
36462SOL     OW11392   1.466   1.422   8.494
36462SOL    HW111393   1.545   1.463   8.530
36462SOL    HW211394   1.424   1.381   8.569
36463SOL     OW11395   8.760   2.511   1.035
36463SOL    HW111396   8.714   2.552   1.108
36463SOL    HW211397   8.847   2.552   1.034
36464SOL     OW11398   8.423   5.272   9.025
36464SOL    HW111399   8.388   5.234   9.105
36464SOL    HW211400   8.465   5.198   8.980
36465SOL     OW11401   3.777   1.501   1.340
36465SOL    HW111402   3.775   1.430   1.404
36465SOL    HW211403   3.712   1.475   1.274
36466SOL     OW11404   3.263   5.940   7.309
36466SOL    HW111405   3.184   5.977   7.268
36466SOL    HW211406   3.326   5.934   7.237
36467SOL     OW11407   3.250   6.959   4.386
36467SOL    HW111408   3.326   6.939   4.440
36467SOL    HW211409   3.267   6.912   4.304
36468SOL     OW11410   2.765   2.782   7.496
36468SOL    HW111411   2.719   2.732   7.563
36468SOL    HW211412   2.705   2.783   7.421
36469SOL     OW11413   4.339  10.953   5.966
36469SOL    HW111414   4.361  11.021   6.029
36469SOL    HW211415   4.245  10.939   5.977
36470SOL     OW11416   0.258   2.035  10.615
36470SOL    HW111417   0.184   2.044  10.675
36470SOL    HW211418   0.221   2.058  10.529
36471SOL     OW11419   0.622   9.435   4.041
36471SOL    HW111420   0.595   9.367   4.103
36471SOL    HW211421   0.547   9.445   3.982
36472SOL     OW11422   2.773   8.885   9.942
36472SOL    HW111423   2.717   8.821   9.985
36472SOL    HW211424   2.717   8.925   9.875
36473SOL     OW11425  10.260   4.368   3.837
36473SOL    HW111426  10.231   4.357   3.927
36473SOL    HW211427  10.179   4.376   3.786
36474SOL     OW11428  10.336   3.169   6.890
36474SOL    HW111429  10.356   3.228   6.818
36474SOL    HW211430  10.419   3.125   6.909
36475SOL     OW11431   8.826   8.102   2.008
36475SOL    HW111432   8.753   8.131   1.953
36475SOL    HW211433   8.784   8.059   2.082
36476SOL     OW11434   9.750   0.222   2.396
36476SOL    HW111435   9.845   0.226   2.406
36476SOL    HW211436   9.716   0.234   2.484
36477SOL     OW11437   7.824   8.126   3.702
36477SOL    HW111438   7.910   8.098   3.669
36477SOL    HW211439   7.797   8.055   3.760
36478SOL     OW11440   1.761   8.780   7.917
36478SOL    HW111441   1.823   8.737   7.976
36478SOL    HW211442   1.691   8.715   7.905
36479SOL     OW11443   0.028   0.419   9.841
36479SOL    HW111444   0.018   0.513   9.829
36479SOL    HW211445  -0.023   0.380   9.770
36480SOL     OW11446   8.531   8.700   2.013
36480SOL    HW111447   8.597   8.735   1.953
36480SOL    HW211448   8.451   8.746   1.990
36481SOL     OW11449   9.675   3.670   3.719
36481SOL    HW111450   9.591   3.679   3.764
36481SOL    HW211451   9.737   3.720   3.772
36482SOL     OW11452   7.729   2.320   4.851
36482SOL    HW111453   7.771   2.234   4.850
36482SOL    HW211454   7.799   2.381   4.829
36483SOL     OW11455   6.416   0.760   8.817
36483SOL    HW111456   6.476   0.798   8.881
36483SOL    HW211457   6.330   0.792   8.843
36484SOL     OW11458   9.419   1.023   6.632
36484SOL    HW111459   9.402   0.995   6.542
36484SOL    HW211460   9.333   1.024   6.673
36485SOL     OW11461   1.508   3.327   5.954
36485SOL    HW111462   1.599   3.311   5.981
36485SOL    HW211463   1.500   3.281   5.870
36486SOL     OW11464   0.516   0.510   4.638
36486SOL    HW111465   0.484   0.430   4.596
36486SOL    HW211466   0.545   0.565   4.565
36487SOL     OW11467  10.849  10.553   0.427
36487SOL    HW111468  10.863  10.592   0.340
36487SOL    HW211469  10.755  10.561   0.442
36488SOL     OW11470   9.833  10.349   2.422
36488SOL    HW111471   9.918  10.377   2.388
36488SOL    HW211472   9.837  10.253   2.421
36489SOL     OW11473   9.169   9.176   2.056
36489SOL    HW111474   9.095   9.117   2.040
36489SOL    HW211475   9.129   9.261   2.070
36490SOL     OW11476   0.468   6.742   4.892
36490SOL    HW111477   0.467   6.705   4.980
36490SOL    HW211478   0.380   6.726   4.858
36491SOL     OW11479   3.786   4.446   3.763
36491SOL    HW111480   3.775   4.522   3.819
36491SOL    HW211481   3.715   4.387   3.788
36492SOL     OW11482  10.035   2.036   9.540
36492SOL    HW111483  10.078   2.004   9.460
36492SOL    HW211484  10.071   2.124   9.553
36493SOL     OW11485   6.835   3.182   2.317
36493SOL    HW111486   6.755   3.233   2.321
36493SOL    HW211487   6.899   3.233   2.366
36494SOL     OW11488  10.219   8.288   1.359
36494SOL    HW111489  10.199   8.299   1.452
36494SOL    HW211490  10.314   8.303   1.353
36495SOL     OW11491   2.934   4.722   7.510
36495SOL    HW111492   2.880   4.786   7.464
36495SOL    HW211493   2.893   4.713   7.596
36496SOL     OW11494  10.232   6.698   6.744
36496SOL    HW111495  10.225   6.787   6.777
36496SOL    HW211496  10.265   6.708   6.654
36497SOL     OW11497   0.911   6.240   2.271
36497SOL    HW111498   0.918   6.175   2.341
36497SOL    HW211499   0.981   6.302   2.289
36498SOL     OW11500   8.595   3.702   4.873
36498SOL    HW111501   8.559   3.623   4.831
36498SOL    HW211502   8.654   3.739   4.807
36499SOL     OW11503   7.592   1.629   8.450
36499SOL    HW111504   7.516   1.574   8.431
36499SOL    HW211505   7.571   1.714   8.411
36500SOL     OW11506   3.660   8.967   9.776
36500SOL    HW111507   3.744   8.931   9.804
36500SOL    HW211508   3.682   9.029   9.706
36501SOL     OW11509   7.562   1.650   9.717
36501SOL    HW111510   7.612   1.618   9.641
36501SOL    HW211511   7.513   1.573   9.747
36502SOL     OW11512   7.471   4.303   3.714
36502SOL    HW111513   7.415   4.229   3.738
36502SOL    HW211514   7.530   4.268   3.647
36503SOL     OW11515   1.673   1.067   8.111
36503SOL    HW111516   1.765   1.048   8.130
36503SOL    HW211517   1.648   1.133   8.175
36504SOL     OW11518   1.272  10.088   3.072
36504SOL    HW111519   1.233  10.001   3.059
36504SOL    HW211520   1.230  10.143   3.006
36505SOL     OW11521   2.474   6.555   1.688
36505SOL    HW111522   2.494   6.584   1.599
36505SOL    HW211523   2.387   6.591   1.706
36506SOL     OW11524   7.430   9.110   6.731
36506SOL    HW111525   7.361   9.075   6.674
36506SOL    HW211526   7.466   9.184   6.683
36507SOL     OW11527   0.418  10.261   2.180
36507SOL    HW111528   0.363  10.183   2.166
36507SOL    HW211529   0.506  10.233   2.152
36508SOL     OW11530  10.289   8.981   8.747
36508SOL    HW111531  10.198   9.010   8.738
36508SOL    HW211532  10.341   9.054   8.714
36509SOL     OW11533   6.247   4.866   7.580
36509SOL    HW111534   6.302   4.907   7.513
36509SOL    HW211535   6.199   4.798   7.533
36510SOL     OW11536   4.904   0.603   8.294
36510SOL    HW111537   4.825   0.562   8.259
36510SOL    HW211538   4.932   0.663   8.225
36511SOL     OW11539   0.680   9.542   2.068
36511SOL    HW111540   0.669   9.628   2.109
36511SOL    HW211541   0.770   9.516   2.090
36512SOL     OW11542   9.123   5.443  11.058
36512SOL    HW111543   9.155   5.428  10.969
36512SOL    HW211544   9.157   5.529  11.082
36513SOL     OW11545  10.877   9.658   4.657
36513SOL    HW111546  10.815   9.598   4.616
36513SOL    HW211547  10.828   9.698   4.729
36514SOL     OW11548   8.307  10.746  11.038
36514SOL    HW111549   8.235  10.804  11.014
36514SOL    HW211550   8.269  10.683  11.099
36515SOL     OW11551   5.181   7.560   2.991
36515SOL    HW111552   5.189   7.486   2.931
36515SOL    HW211553   5.188   7.521   3.078
36516SOL     OW11554   0.661   5.451   1.983
36516SOL    HW111555   0.740   5.408   1.949
36516SOL    HW211556   0.600   5.449   1.909
36517SOL     OW11557   1.906   0.402   4.381
36517SOL    HW111558   1.871   0.330   4.328
36517SOL    HW211559   1.832   0.462   4.392
36518SOL     OW11560   8.313   7.707   3.917
36518SOL    HW111561   8.367   7.782   3.941
36518SOL    HW211562   8.364   7.662   3.850
36519SOL     OW11563  10.673   0.116   9.141
36519SOL    HW111564  10.713   0.029   9.149
36519SOL    HW211565  10.744   0.177   9.161
36520SOL     OW11566   7.143  10.967   2.087
36520SOL    HW111567   7.172  10.915   2.012
36520SOL    HW211568   7.186  10.927   2.162
36521SOL     OW11569   8.118  10.164   7.318
36521SOL    HW111570   8.026  10.189   7.329
36521SOL    HW211571   8.128  10.149   7.224
36522SOL     OW11572   2.266   8.760   0.933
36522SOL    HW111573   2.298   8.845   0.964
36522SOL    HW211574   2.174   8.774   0.913
36523SOL     OW11575  10.321   3.534   6.326
36523SOL    HW111576  10.256   3.580   6.273
36523SOL    HW211577  10.282   3.448   6.342
36524SOL     OW11578   0.616   2.773   2.332
36524SOL    HW111579   0.560   2.850   2.342
36524SOL    HW211580   0.593   2.738   2.246
36525SOL     OW11581   6.270   1.179   9.142
36525SOL    HW111582   6.346   1.134   9.104
36525SOL    HW211583   6.260   1.257   9.088
36526SOL     OW11584   7.332   5.507   7.213
36526SOL    HW111585   7.364   5.544   7.131
36526SOL    HW211586   7.248   5.468   7.190
36527SOL     OW11587   5.099   7.118   8.165
36527SOL    HW111588   5.133   7.177   8.231
36527SOL    HW211589   5.049   7.053   8.214
36528SOL     OW11590   0.167   9.561   4.045
36528SOL    HW111591   0.248   9.533   4.002
36528SOL    HW211592   0.154   9.497   4.115
36529SOL     OW11593   8.833   7.062   3.156
36529SOL    HW111594   8.909   7.118   3.171
36529SOL    HW211595   8.849   7.023   3.070
36530SOL     OW11596  10.562  10.172   3.154
36530SOL    HW111597  10.617  10.246   3.129
36530SOL    HW211598  10.605  10.096   3.113
36531SOL     OW11599   4.233   7.141   3.686
36531SOL    HW111600   4.151   7.124   3.732
36531SOL    HW211601   4.300   7.140   3.754
36532SOL     OW11602   0.307   1.969   3.964
36532SOL    HW111603   0.323   1.962   4.058
36532SOL    HW211604   0.240   2.037   3.956
36533SOL     OW11605   6.103   4.245   8.822
36533SOL    HW111606   6.169   4.188   8.862
36533SOL    HW211607   6.150   4.325   8.800
36534SOL     OW11608   1.241   7.939   3.658
36534SOL    HW111609   1.304   8.000   3.696
36534SOL    HW211610   1.199   7.988   3.587
36535SOL     OW11611   0.150   8.129   9.748
36535SOL    HW111612   0.080   8.083   9.701
36535SOL    HW211613   0.228   8.078   9.729
36536SOL     OW11614   9.765   7.565   4.129
36536SOL    HW111615   9.818   7.644   4.138
36536SOL    HW211616   9.732   7.548   4.217
36537SOL     OW11617   2.600   9.737   4.917
36537SOL    HW111618   2.557   9.655   4.942
36537SOL    HW211619   2.693   9.715   4.916
36538SOL     OW11620   7.961   1.664   1.413
36538SOL    HW111621   7.897   1.614   1.362
36538SOL    HW211622   7.944   1.755   1.389
36539SOL     OW11623   8.964   3.165   1.675
36539SOL    HW111624   8.952   3.070   1.678
36539SOL    HW211625   9.038   3.182   1.733
36540SOL     OW11626   1.835  10.934   5.885
36540SOL    HW111627   1.829  11.010   5.942
36540SOL    HW211628   1.882  10.966   5.807
36541SOL     OW11629   8.454  10.923   5.854
36541SOL    HW111630   8.385  10.971   5.807
36541SOL    HW211631   8.524  10.912   5.789
36542SOL     OW11632   9.897   9.716   1.253
36542SOL    HW111633   9.898   9.620   1.244
36542SOL    HW211634   9.805   9.737   1.269
36543SOL     OW11635   5.519  10.781   6.310
36543SOL    HW111636   5.445  10.826   6.269
36543SOL    HW211637   5.595  10.834   6.286
36544SOL     OW11638   3.737   6.380   0.629
36544SOL    HW111639   3.659   6.413   0.585
36544SOL    HW211640   3.789   6.458   0.648
36545SOL     OW11641   3.843   7.465   0.386
36545SOL    HW111642   3.775   7.399   0.401
36545SOL    HW211643   3.796   7.540   0.349
36546SOL     OW11644   8.233   1.700   3.557
36546SOL    HW111645   8.161   1.755   3.585
36546SOL    HW211646   8.305   1.723   3.615
36547SOL     OW11647  10.816   6.437   1.159
36547SOL    HW111648  10.739   6.478   1.197
36547SOL    HW211649  10.890   6.476   1.206
36548SOL     OW11650   3.286   0.324   3.112
36548SOL    HW111651   3.206   0.355   3.070
36548SOL    HW211652   3.293   0.375   3.192
36549SOL     OW11653   9.195   5.404   0.684
36549SOL    HW111654   9.140   5.325   0.680
36549SOL    HW211655   9.160   5.461   0.615
36550SOL     OW11656   1.171   0.080   2.495
36550SOL    HW111657   1.222   0.064   2.415
36550SOL    HW211658   1.088   0.035   2.479
36551SOL     OW11659   9.490   8.684   5.597
36551SOL    HW111660   9.563   8.648   5.546
36551SOL    HW211661   9.527   8.760   5.641
36552SOL     OW11662  10.705   3.265   2.549
36552SOL    HW111663  10.657   3.346   2.536
36552SOL    HW211664  10.639   3.203   2.581
36553SOL     OW11665  10.692   2.211   8.304
36553SOL    HW111666  10.670   2.303   8.294
36553SOL    HW211667  10.622   2.165   8.258
36554SOL     OW11668   1.587   6.266   9.003
36554SOL    HW111669   1.607   6.189   9.056
36554SOL    HW211670   1.518   6.236   8.943
36555SOL     OW11671   4.896   2.765   4.494
36555SOL    HW111672   4.825   2.718   4.537
36555SOL    HW211673   4.852   2.833   4.443
36556SOL     OW11674   5.285   4.435   2.640
36556SOL    HW111675   5.223   4.499   2.605
36556SOL    HW211676   5.371   4.472   2.621
36557SOL     OW11677   5.040  11.042   3.732
36557SOL    HW111678   5.050  10.955   3.770
36557SOL    HW211679   5.017  11.026   3.640
36558SOL     OW11680   7.461   2.408   8.590
36558SOL    HW111681   7.498   2.338   8.535
36558SOL    HW211682   7.428   2.472   8.527
36559SOL     OW11683   2.167   9.445   5.586
36559SOL    HW111684   2.246   9.421   5.537
36559SOL    HW211685   2.164   9.540   5.581
36560SOL     OW11686   1.274   4.116   1.185
36560SOL    HW111687   1.196   4.116   1.130
36560SOL    HW211688   1.340   4.161   1.132
36561SOL     OW11689  10.331   2.720   3.896
36561SOL    HW111690  10.328   2.743   3.989
36561SOL    HW211691  10.424   2.720   3.874
36562SOL     OW11692   9.491   6.444   7.098
36562SOL    HW111693   9.498   6.372   7.161
36562SOL    HW211694   9.568   6.434   7.042
36563SOL     OW11695  10.236   3.981   9.836
36563SOL    HW111696  10.216   3.976   9.742
36563SOL    HW211697  10.153   3.961   9.879
36564SOL     OW11698   7.316   1.648   0.934
36564SOL    HW111699   7.255   1.602   0.876
36564SOL    HW211700   7.282   1.737   0.939
36565SOL     OW11701   3.242   1.798   3.661
36565SOL    HW111702   3.214   1.740   3.590
36565SOL    HW211703   3.281   1.739   3.726
36566SOL     OW11704   3.108   3.716   6.405
36566SOL    HW111705   3.121   3.783   6.472
36566SOL    HW211706   3.021   3.681   6.422
36567SOL     OW11707   1.885   8.080   0.905
36567SOL    HW111708   1.829   8.086   0.982
36567SOL    HW211709   1.854   8.149   0.847
36568SOL     OW11710   8.563   4.568   1.177
36568SOL    HW111711   8.598   4.576   1.088
36568SOL    HW211712   8.564   4.474   1.195
36569SOL     OW11713   7.574   2.454   1.412
36569SOL    HW111714   7.653   2.454   1.466
36569SOL    HW211715   7.566   2.544   1.381
36570SOL     OW11716   9.545   4.343   2.312
36570SOL    HW111717   9.546   4.274   2.378
36570SOL    HW211718   9.478   4.315   2.249
36571SOL     OW11719  10.188   6.206   1.652
36571SOL    HW111720  10.145   6.285   1.619
36571SOL    HW211721  10.128   6.171   1.717
36572SOL     OW11722   5.204   8.200   3.297
36572SOL    HW111723   5.178   8.291   3.301
36572SOL    HW211724   5.296   8.202   3.271
36573SOL     OW11725   8.835   8.615   6.108
36573SOL    HW111726   8.836   8.523   6.136
36573SOL    HW211727   8.792   8.613   6.022
36574SOL     OW11728   2.029   0.140   1.486
36574SOL    HW111729   2.056   0.232   1.482
36574SOL    HW211730   1.938   0.142   1.515
36575SOL     OW11731  10.539   2.139   4.674
36575SOL    HW111732  10.460   2.182   4.641
36575SOL    HW211733  10.523   2.127   4.767
36576SOL     OW11734   4.805   6.705   1.069
36576SOL    HW111735   4.759   6.788   1.058
36576SOL    HW211736   4.821   6.698   1.163
36577SOL     OW11737   2.489   0.445   4.387
36577SOL    HW111738   2.573   0.442   4.342
36577SOL    HW211739   2.439   0.512   4.340
36578SOL     OW11740   7.136  11.009   2.749
36578SOL    HW111741   7.064  10.964   2.793
36578SOL    HW211742   7.099  11.038   2.665
36579SOL     OW11743  10.627   4.054   2.534
36579SOL    HW111744  10.604   4.004   2.455
36579SOL    HW211745  10.721   4.040   2.544
36580SOL     OW11746  10.710   5.272   5.396
36580SOL    HW111747  10.617   5.250   5.386
36580SOL    HW211748  10.718   5.304   5.486
36581SOL     OW11749   9.054   0.182   4.116
36581SOL    HW111750   9.138   0.148   4.086
36581SOL    HW211751   8.990   0.120   4.081
36582SOL     OW11752   1.467   8.428   4.880
36582SOL    HW111753   1.538   8.404   4.820
36582SOL    HW211754   1.511   8.448   4.963
36583SOL     OW11755   3.140   7.809   0.929
36583SOL    HW111756   3.048   7.796   0.949
36583SOL    HW211757   3.145   7.803   0.833
36584SOL     OW11758   8.532   0.451   9.313
36584SOL    HW111759   8.527   0.545   9.330
36584SOL    HW211760   8.597   0.419   9.375
36585SOL     OW11761   7.632   8.132   4.908
36585SOL    HW111762   7.647   8.145   5.001
36585SOL    HW211763   7.537   8.133   4.898
36586SOL     OW11764   5.739   2.353   6.498
36586SOL    HW111765   5.720   2.445   6.480
36586SOL    HW211766   5.834   2.349   6.507
36587SOL     OW11767   3.466   1.595   4.108
36587SOL    HW111768   3.399   1.530   4.130
36587SOL    HW211769   3.509   1.615   4.191
36588SOL     OW11770   7.798   2.489   0.854
36588SOL    HW111771   7.730   2.510   0.917
36588SOL    HW211772   7.860   2.434   0.902
36589SOL     OW11773   2.693   3.025   3.104
36589SOL    HW111774   2.739   2.941   3.099
36589SOL    HW211775   2.700   3.051   3.196
36590SOL     OW11776  10.448  10.646   6.752
36590SOL    HW111777  10.463  10.735   6.784
36590SOL    HW211778  10.389  10.657   6.677
36591SOL     OW11779  10.939  10.729   3.116
36591SOL    HW111780  10.916  10.637   3.103
36591SOL    HW211781  10.887  10.757   3.191
36592SOL     OW11782   6.918   2.696   6.927
36592SOL    HW111783   6.886   2.628   6.867
36592SOL    HW211784   6.887   2.778   6.888
36593SOL     OW11785   5.827   6.940   6.434
36593SOL    HW111786   5.896   6.974   6.377
36593SOL    HW211787   5.766   7.013   6.444
36594SOL     OW11788   3.421   9.189   2.442
36594SOL    HW111789   3.470   9.190   2.360
36594SOL    HW211790   3.396   9.097   2.454
36595SOL     OW11791   9.607   0.038   7.284
36595SOL    HW111792   9.606  -0.044   7.233
36595SOL    HW211793   9.657   0.016   7.363
36596SOL     OW11794   0.105   8.567   2.526
36596SOL    HW111795   0.100   8.511   2.448
36596SOL    HW211796   0.014   8.572   2.557
36597SOL     OW11797   5.250   4.571   1.068
36597SOL    HW111798   5.334   4.601   1.102
36597SOL    HW211799   5.271   4.534   0.982
36598SOL     OW11800   0.177   5.443   1.789
36598SOL    HW111801   0.227   5.381   1.842
36598SOL    HW211802   0.085   5.420   1.805
36599SOL     OW11803   8.667   5.472   5.367
36599SOL    HW111804   8.575   5.446   5.361
36599SOL    HW211805   8.696   5.438   5.451
36600SOL     OW11806  10.854   1.733   1.387
36600SOL    HW111807  10.863   1.792   1.461
36600SOL    HW211808  10.870   1.646   1.423
36601SOL     OW11809  10.129   4.667   3.004
36601SOL    HW111810  10.107   4.673   3.097
36601SOL    HW211811  10.100   4.579   2.978
36602SOL     OW11812   8.121   2.975   6.389
36602SOL    HW111813   8.107   2.883   6.413
36602SOL    HW211814   8.214   2.990   6.405
36603SOL     OW11815   8.693   0.578   4.156
36603SOL    HW111816   8.685   0.492   4.114
36603SOL    HW211817   8.747   0.629   4.095
36604SOL     OW11818   8.924   2.143   3.876
36604SOL    HW111819   8.946   2.232   3.901
36604SOL    HW211820   8.950   2.089   3.950
36605SOL     OW11821   0.514   0.756   7.493
36605SOL    HW111822   0.562   0.757   7.410
36605SOL    HW211823   0.536   0.671   7.532
36606SOL     OW11824   0.740   0.498   2.940
36606SOL    HW111825   0.790   0.426   2.978
36606SOL    HW211826   0.662   0.505   2.995
36607SOL     OW11827   7.909   0.218   5.295
36607SOL    HW111828   7.879   0.244   5.382
36607SOL    HW211829   7.903   0.298   5.242
36608SOL     OW11830   0.290  11.031   2.747
36608SOL    HW111831   0.369  10.989   2.713
36608SOL    HW211832   0.221  11.008   2.684
36609SOL     OW11833   7.129   7.632   2.672
36609SOL    HW111834   7.102   7.543   2.648
36609SOL    HW211835   7.121   7.635   2.767
36610SOL     OW11836   5.931   5.926   0.631
36610SOL    HW111837   5.886   5.895   0.552
36610SOL    HW211838   5.927   6.021   0.625
36611SOL     OW11839   5.666   1.531   1.908
36611SOL    HW111840   5.604   1.506   1.976
36611SOL    HW211841   5.670   1.454   1.850
36612SOL     OW11842   4.505   9.520   0.022
36612SOL    HW111843   4.526   9.581  -0.048
36612SOL    HW211844   4.557   9.442   0.003
36613SOL     OW11845   8.789   3.880   5.229
36613SOL    HW111846   8.823   3.790   5.235
36613SOL    HW211847   8.756   3.887   5.139
36614SOL     OW11848   1.127   2.941   4.079
36614SOL    HW111849   1.032   2.946   4.086
36614SOL    HW211850   1.159   2.985   4.157
36615SOL     OW11851   8.810  10.266   4.039
36615SOL    HW111852   8.724  10.302   4.020
36615SOL    HW211853   8.862  10.341   4.067
36616SOL     OW11854   1.478   8.839   6.553
36616SOL    HW111855   1.539   8.874   6.617
36616SOL    HW211856   1.534   8.802   6.484
36617SOL     OW11857   7.945   3.302   8.726
36617SOL    HW111858   8.008   3.347   8.670
36617SOL    HW211859   7.860   3.335   8.697
36618SOL     OW11860   0.653  10.090   9.374
36618SOL    HW111861   0.654  10.077   9.469
36618SOL    HW211862   0.580  10.036   9.343
36619SOL     OW11863   1.096   6.000   6.389
36619SOL    HW111864   1.124   6.091   6.390
36619SOL    HW211865   1.055   5.986   6.474
36620SOL     OW11866   0.352   2.557   9.817
36620SOL    HW111867   0.261   2.543   9.790
36620SOL    HW211868   0.369   2.487   9.880
36621SOL     OW11869   6.804   1.901   6.482
36621SOL    HW111870   6.781   1.969   6.419
36621SOL    HW211871   6.740   1.911   6.552
36622SOL     OW11872   6.169   6.550   9.849
36622SOL    HW111873   6.153   6.532   9.941
36622SOL    HW211874   6.090   6.594   9.818
36623SOL     OW11875   8.504   6.737   9.087
36623SOL    HW111876   8.453   6.801   9.136
36623SOL    HW211877   8.543   6.681   9.154
36624SOL     OW11878   7.986   0.905   5.025
36624SOL    HW111879   8.003   0.995   4.998
36624SOL    HW211880   8.048   0.889   5.096
36625SOL     OW11881  10.735   5.680   2.453
36625SOL    HW111882  10.743   5.764   2.408
36625SOL    HW211883  10.808   5.678   2.515
36626SOL     OW11884  10.102   0.933   2.637
36626SOL    HW111885  10.090   1.025   2.660
36626SOL    HW211886  10.160   0.898   2.705
36627SOL     OW11887   1.632   2.175   7.110
36627SOL    HW111888   1.692   2.113   7.069
36627SOL    HW211889   1.666   2.261   7.085
36628SOL     OW11890   7.718   8.830   0.880
36628SOL    HW111891   7.737   8.737   0.897
36628SOL    HW211892   7.630   8.843   0.916
36629SOL     OW11893   7.680   9.789   8.255
36629SOL    HW111894   7.756   9.767   8.309
36629SOL    HW211895   7.712   9.855   8.194
36630SOL     OW11896   3.964   3.670   4.172
36630SOL    HW111897   4.013   3.751   4.181
36630SOL    HW211898   3.940   3.646   4.261
36631SOL     OW11899  10.674   0.506   5.088
36631SOL    HW111900  10.747   0.444   5.096
36631SOL    HW211901  10.611   0.460   5.033
36632SOL     OW11902   0.926   4.386   1.341
36632SOL    HW111903   0.900   4.438   1.417
36632SOL    HW211904   0.973   4.447   1.284
36633SOL     OW11905   1.716   5.372   3.788
36633SOL    HW111906   1.797   5.422   3.780
36633SOL    HW211907   1.648   5.438   3.796
36634SOL     OW11908   3.833   2.360  10.968
36634SOL    HW111909   3.759   2.357  11.028
36634SOL    HW211910   3.902   2.312  11.013
36635SOL     OW11911  10.038   6.685   7.257
36635SOL    HW111912  10.107   6.642   7.207
36635SOL    HW211913  10.004   6.616   7.314
36636SOL     OW11914   0.486  10.451   1.954
36636SOL    HW111915   0.404  10.483   1.918
36636SOL    HW211916   0.463  10.369   1.997
36637SOL     OW11917   7.267  10.765   3.064
36637SOL    HW111918   7.233  10.756   2.975
36637SOL    HW211919   7.311  10.850   3.064
36638SOL     OW11920   4.321   2.365   6.098
36638SOL    HW111921   4.273   2.447   6.092
36638SOL    HW211922   4.389   2.381   6.163
36639SOL     OW11923   7.239   6.301   1.394
36639SOL    HW111924   7.171   6.273   1.455
36639SOL    HW211925   7.303   6.230   1.395
36640SOL     OW11926   3.031   0.014   0.183
36640SOL    HW111927   2.955   0.063   0.214
36640SOL    HW211928   3.082  -0.004   0.262
36641SOL     OW11929   9.005  10.426   5.992
36641SOL    HW111930   9.076  10.422   6.056
36641SOL    HW211931   8.932  10.381   6.034
36642SOL     OW11932  10.760   9.626   8.464
36642SOL    HW111933  10.837   9.584   8.426
36642SOL    HW211934  10.700   9.553   8.481
36643SOL     OW11935   9.262   9.578   3.486
36643SOL    HW111936   9.325   9.516   3.448
36643SOL    HW211937   9.232   9.535   3.566
36644SOL     OW11938   1.145   3.167  10.074
36644SOL    HW111939   1.084   3.220  10.023
36644SOL    HW211940   1.232   3.195  10.045
36645SOL     OW11941   8.551   9.144   4.220
36645SOL    HW111942   8.589   9.071   4.269
36645SOL    HW211943   8.577   9.222   4.268
36646SOL     OW11944   8.705   4.688   7.230
36646SOL    HW111945   8.697   4.625   7.301
36646SOL    HW211946   8.704   4.634   7.150
36647SOL     OW11947   6.854  10.165   6.074
36647SOL    HW111948   6.813  10.078   6.076
36647SOL    HW211949   6.819  10.206   5.995
36648SOL     OW11950   6.367   9.874   5.677
36648SOL    HW111951   6.372   9.882   5.772
36648SOL    HW211952   6.280   9.908   5.655
36649SOL     OW11953   0.299   3.850   7.628
36649SOL    HW111954   0.303   3.768   7.578
36649SOL    HW211955   0.221   3.841   7.683
36650SOL     OW11956  10.753   6.956   4.544
36650SOL    HW111957  10.847   6.952   4.525
36650SOL    HW211958  10.747   6.944   4.638
36651SOL     OW11959   1.525   2.676   4.290
36651SOL    HW111960   1.501   2.623   4.366
36651SOL    HW211961   1.508   2.766   4.316
36652SOL     OW11962   0.960   9.561   2.251
36652SOL    HW111963   1.048   9.536   2.223
36652SOL    HW211964   0.959   9.545   2.345
36653SOL     OW11965   9.408   9.419   6.684
36653SOL    HW111966   9.340   9.486   6.678
36653SOL    HW211967   9.389   9.359   6.612
36654SOL     OW11968   0.942   8.204  11.001
36654SOL    HW111969   0.916   8.113  11.019
36654SOL    HW211970   1.008   8.224  11.067
36655SOL     OW11971  10.893   1.933   1.554
36655SOL    HW111972  10.964   1.990   1.525
36655SOL    HW211973  10.883   1.951   1.647
36656SOL     OW11974   8.896   5.483   9.834
36656SOL    HW111975   8.980   5.529   9.834
36656SOL    HW211976   8.847   5.521   9.906
36657SOL     OW11977  10.688   6.773   2.543
36657SOL    HW111978  10.606   6.815   2.518
36657SOL    HW211979  10.662   6.703   2.603
36658SOL     OW11980   0.723   0.883  10.227
36658SOL    HW111981   0.648   0.928  10.264
36658SOL    HW211982   0.755   0.941  10.158
36659SOL     OW11983   9.376   0.478   1.240
36659SOL    HW111984   9.353   0.568   1.217
36659SOL    HW211985   9.447   0.455   1.179
36660SOL     OW11986   8.752   7.402   5.525
36660SOL    HW111987   8.823   7.356   5.571
36660SOL    HW211988   8.702   7.332   5.483
36661SOL     OW11989   0.967   4.110   3.518
36661SOL    HW111990   0.879   4.119   3.482
36661SOL    HW211991   0.966   4.161   3.599
36662SOL     OW11992   3.345   1.197   9.433
36662SOL    HW111993   3.324   1.114   9.476
36662SOL    HW211994   3.415   1.175   9.371
36663SOL     OW11995   9.871   0.629   9.976
36663SOL    HW111996   9.782   0.652   9.952
36663SOL    HW211997   9.867   0.535   9.994
36664SOL     OW11998   5.597   1.031  10.129
36664SOL    HW111999   5.601   1.039  10.033
36664SOL    HW212000   5.689   1.031  10.157
36665SOL     OW12001   0.455   8.532   5.266
36665SOL    HW112002   0.510   8.589   5.319
36665SOL    HW212003   0.367   8.569   5.273
36666SOL     OW12004   6.953   0.799   0.674
36666SOL    HW112005   6.863   0.831   0.675
36666SOL    HW212006   6.970   0.779   0.582
36667SOL     OW12007   7.503   0.786   2.784
36667SOL    HW112008   7.543   0.699   2.784
36667SOL    HW212009   7.566   0.841   2.830
36668SOL     OW12010   0.630   7.530   2.996
36668SOL    HW112011   0.569   7.555   3.065
36668SOL    HW212012   0.670   7.449   3.027
36669SOL     OW12013   3.338   0.844   1.193
36669SOL    HW112014   3.247   0.842   1.163
36669SOL    HW212015   3.384   0.785   1.133
36670SOL     OW12016   1.656   9.153  10.652
36670SOL    HW112017   1.707   9.233  10.646
36670SOL    HW212018   1.569   9.177  10.622
36671SOL     OW12019   5.342   7.241   9.529
36671SOL    HW112020   5.331   7.180   9.455
36671SOL    HW212021   5.271   7.304   9.518
36672SOL     OW12022   3.720   3.984   0.377
36672SOL    HW112023   3.684   4.071   0.390
36672SOL    HW212024   3.752   3.958   0.463
36673SOL     OW12025   1.152   9.948  10.541
36673SOL    HW112026   1.245   9.946  10.520
36673SOL    HW212027   1.144   9.895  10.620
36674SOL     OW12028  10.051   2.678   6.420
36674SOL    HW112029   9.969   2.703   6.378
36674SOL    HW212030  10.057   2.734   6.497
36675SOL     OW12031   0.873   2.224   6.372
36675SOL    HW112032   0.779   2.235   6.382
36675SOL    HW212033   0.901   2.301   6.323
36676SOL     OW12034  10.264   3.164   0.366
36676SOL    HW112035  10.322   3.152   0.441
36676SOL    HW212036  10.208   3.086   0.367
36677SOL     OW12037   9.894   4.124   0.431
36677SOL    HW112038   9.958   4.125   0.502
36677SOL    HW212039   9.838   4.048   0.450
36678SOL     OW12040   3.206   9.951   6.363
36678SOL    HW112041   3.267  10.002   6.416
36678SOL    HW212042   3.121   9.963   6.405
36679SOL     OW12043   8.596   2.293   9.482
36679SOL    HW112044   8.667   2.356   9.486
36679SOL    HW212045   8.525   2.339   9.438
36680SOL     OW12046  10.871   3.660  10.248
36680SOL    HW112047  10.904   3.688  10.162
36680SOL    HW212048  10.851   3.567  10.237
36681SOL     OW12049   4.037   9.987   3.181
36681SOL    HW112050   3.976   9.960   3.112
36681SOL    HW212051   4.121   9.947   3.156
36682SOL     OW12052  10.223   7.209  10.131
36682SOL    HW112053  10.222   7.137  10.194
36682SOL    HW212054  10.316   7.221  10.109
36683SOL     OW12055   5.767   0.439   9.712
36683SOL    HW112056   5.755   0.448   9.617
36683SOL    HW212057   5.723   0.357   9.734
36684SOL     OW12058   4.704   4.000   6.214
36684SOL    HW112059   4.710   3.927   6.276
36684SOL    HW212060   4.794   4.033   6.207
36685SOL     OW12061   8.369   9.998   9.442
36685SOL    HW112062   8.297  10.059   9.431
36685SOL    HW212063   8.331   9.912   9.421
36686SOL     OW12064   9.942   6.686   7.594
36686SOL    HW112065   9.880   6.621   7.628
36686SOL    HW212066  10.011   6.633   7.552
36687SOL     OW12067   1.201   9.322   4.871
36687SOL    HW112068   1.165   9.387   4.931
36687SOL    HW212069   1.293   9.315   4.896
36688SOL     OW12070   0.703   6.819   4.977
36688SOL    HW112071   0.622   6.792   4.934
36688SOL    HW212072   0.713   6.911   4.953
36689SOL     OW12073   2.841   7.058   8.901
36689SOL    HW112074   2.781   7.091   8.834
36689SOL    HW212075   2.903   7.129   8.915
36690SOL     OW12076   6.135   2.872   4.225
36690SOL    HW112077   6.073   2.812   4.267
36690SOL    HW212078   6.208   2.879   4.287
36691SOL     OW12079  10.746   0.535  10.471
36691SOL    HW112080  10.683   0.476  10.430
36691SOL    HW212081  10.738   0.617  10.422
36692SOL     OW12082   4.787   0.090   2.558
36692SOL    HW112083   4.752   0.039   2.631
36692SOL    HW212084   4.882   0.090   2.572
36693SOL     OW12085   1.368   4.793   8.797
36693SOL    HW112086   1.368   4.707   8.839
36693SOL    HW212087   1.359   4.774   8.703
36694SOL     OW12088   4.698   1.292  10.337
36694SOL    HW112089   4.670   1.371  10.382
36694SOL    HW212090   4.792   1.285  10.356
36695SOL     OW12091   7.318   5.515  10.605
36695SOL    HW112092   7.282   5.602  10.592
36695SOL    HW212093   7.402   5.516  10.558
36696SOL     OW12094   6.823   0.861   8.769
36696SOL    HW112095   6.797   0.785   8.716
36696SOL    HW212096   6.860   0.922   8.705
36697SOL     OW12097   1.975   1.335  10.579
36697SOL    HW112098   1.897   1.285  10.555
36697SOL    HW212099   1.950   1.426  10.568
36698SOL     OW12100   0.458   9.366  10.494
36698SOL    HW112101   0.403   9.398  10.422
36698SOL    HW212102   0.540   9.414  10.484
36699SOL     OW12103   9.652   1.241   0.901
36699SOL    HW112104   9.730   1.197   0.935
36699SOL    HW212105   9.589   1.170   0.886
36700SOL     OW12106   6.298  10.888   8.750
36700SOL    HW112107   6.370  10.938   8.789
36700SOL    HW212108   6.219  10.922   8.792
36701SOL     OW12109   8.961   0.515   3.565
36701SOL    HW112110   8.928   0.600   3.536
36701SOL    HW212111   8.894   0.481   3.624
36702SOL     OW12112   6.893   0.675   9.797
36702SOL    HW112113   6.866   0.749   9.743
36702SOL    HW212114   6.915   0.714   9.881
36703SOL     OW12115   3.032   2.023   7.438
36703SOL    HW112116   2.989   1.961   7.378
36703SOL    HW212117   3.060   2.095   7.382
36704SOL     OW12118   0.455   3.354   3.852
36704SOL    HW112119   0.360   3.358   3.856
36704SOL    HW212120   0.485   3.424   3.910
36705SOL     OW12121   1.088   7.873   1.396
36705SOL    HW112122   1.067   7.787   1.433
36705SOL    HW212123   1.107   7.928   1.472
36706SOL     OW12124   1.572   3.208   4.040
36706SOL    HW112125   1.566   3.243   3.951
36706SOL    HW212126   1.556   3.114   4.030
36707SOL     OW12127   1.494   5.577   9.861
36707SOL    HW112128   1.403   5.607   9.859
36707SOL    HW212129   1.533   5.621   9.936
36708SOL     OW12130   1.034   9.119   3.728
36708SOL    HW112131   1.049   9.192   3.787
36708SOL    HW212132   1.118   9.107   3.683
36709SOL     OW12133  10.626   1.988   3.873
36709SOL    HW112134  10.624   1.945   3.787
36709SOL    HW212135  10.662   1.922   3.932
36710SOL     OW12136   5.892   2.628   5.041
36710SOL    HW112137   5.964   2.588   4.992
36710SOL    HW212138   5.872   2.565   5.110
36711SOL     OW12139   7.426   2.211  10.244
36711SOL    HW112140   7.343   2.176  10.276
36711SOL    HW212141   7.459   2.264  10.316
36712SOL     OW12142   2.819   2.871   3.607
36712SOL    HW112143   2.822   2.920   3.689
36712SOL    HW212144   2.811   2.779   3.634
36713SOL     OW12145   4.985   8.429   8.082
36713SOL    HW112146   5.068   8.410   8.037
36713SOL    HW212147   4.951   8.506   8.037
36714SOL     OW12148   8.971   5.939   2.087
36714SOL    HW112149   8.943   5.885   2.161
36714SOL    HW212150   8.907   5.921   2.018
36715SOL     OW12151   7.692   5.544   7.464
36715SOL    HW112152   7.646   5.618   7.502
36715SOL    HW212153   7.784   5.571   7.461
36716SOL     OW12154   8.080   6.555   4.179
36716SOL    HW112155   8.112   6.474   4.138
36716SOL    HW212156   8.036   6.601   4.108
36717SOL     OW12157  11.070   9.466   5.265
36717SOL    HW112158  10.990   9.420   5.291
36717SOL    HW212159  11.139   9.400   5.271
36718SOL     OW12160   1.628   1.950  10.228
36718SOL    HW112161   1.640   1.988  10.315
36718SOL    HW212162   1.540   1.913  10.229
36719SOL     OW12163   2.000   0.664   4.216
36719SOL    HW112164   2.016   0.673   4.122
36719SOL    HW212165   2.009   0.570   4.233
36720SOL     OW12166   2.133   9.413   4.501
36720SOL    HW112167   2.058   9.441   4.449
36720SOL    HW212168   2.174   9.494   4.530
36721SOL     OW12169   9.075   0.687   5.145
36721SOL    HW112170   9.163   0.662   5.116
36721SOL    HW212171   9.033   0.721   5.066
36722SOL     OW12172   1.413   5.943   1.817
36722SOL    HW112173   1.365   5.868   1.782
36722SOL    HW212174   1.365   6.019   1.785
36723SOL     OW12175   4.262   5.719   0.196
36723SOL    HW112176   4.264   5.637   0.246
36723SOL    HW212177   4.309   5.781   0.252
36724SOL     OW12178   5.334  10.716   4.830
36724SOL    HW112179   5.251  10.743   4.869
36724SOL    HW212180   5.397  10.782   4.859
36725SOL     OW12181   4.462   5.238   1.610
36725SOL    HW112182   4.468   5.147   1.581
36725SOL    HW212183   4.459   5.232   1.705
36726SOL     OW12184   4.013  10.401   9.429
36726SOL    HW112185   3.960  10.400   9.508
36726SOL    HW212186   4.103  10.391   9.460
36727SOL     OW12187   6.407   7.061   6.024
36727SOL    HW112188   6.354   7.060   5.944
36727SOL    HW212189   6.424   7.154   6.040
36728SOL     OW12190   8.873   7.568   7.015
36728SOL    HW112191   8.939   7.589   6.949
36728SOL    HW212192   8.790   7.576   6.969
36729SOL     OW12193   8.234   6.004   3.372
36729SOL    HW112194   8.318   6.025   3.332
36729SOL    HW212195   8.169   6.027   3.305
36730SOL     OW12196   9.622  10.962   4.888
36730SOL    HW112197   9.696  11.018   4.911
36730SOL    HW212198   9.562  10.970   4.962
36731SOL     OW12199  10.295  10.262   0.236
36731SOL    HW112200  10.325  10.212   0.312
36731SOL    HW212201  10.202  10.240   0.227
36732SOL     OW12202   3.958   4.488   4.069
36732SOL    HW112203   4.049   4.518   4.065
36732SOL    HW212204   3.907   4.562   4.036
36733SOL     OW12205   5.496   6.339   1.401
36733SOL    HW112206   5.565   6.377   1.456
36733SOL    HW212207   5.418   6.339   1.456
36734SOL     OW12208   1.004   6.193  11.018
36734SOL    HW112209   0.969   6.280  11.035
36734SOL    HW212210   1.072   6.206  10.951
36735SOL     OW12211   8.456   7.314   1.664
36735SOL    HW112212   8.376   7.335   1.712
36735SOL    HW212213   8.469   7.220   1.679
36736SOL     OW12214   7.585  10.416   2.078
36736SOL    HW112215   7.669  10.427   2.122
36736SOL    HW212216   7.545  10.340   2.121
36737SOL     OW12217   1.128   0.870   4.720
36737SOL    HW112218   1.196   0.840   4.780
36737SOL    HW212219   1.147   0.824   4.638
36738SOL     OW12220   9.373   8.527   2.444
36738SOL    HW112221   9.458   8.516   2.401
36738SOL    HW212222   9.389   8.593   2.511
36739SOL     OW12223  10.629   4.825   1.603
36739SOL    HW112224  10.623   4.869   1.518
36739SOL    HW212225  10.715   4.783   1.602
36740SOL     OW12226   7.785   3.836   6.182
36740SOL    HW112227   7.727   3.910   6.163
36740SOL    HW212228   7.832   3.862   6.261
36741SOL     OW12229   0.984   9.214   8.719
36741SOL    HW112230   0.903   9.255   8.749
36741SOL    HW212231   0.961   9.122   8.706
36742SOL     OW12232   2.511   5.917   9.781
36742SOL    HW112233   2.512   5.969   9.700
36742SOL    HW212234   2.564   5.967   9.842
36743SOL     OW12235   2.147   3.251   2.830
36743SOL    HW112236   2.203   3.329   2.827
36743SOL    HW212237   2.183   3.199   2.902
36744SOL     OW12238   9.186   1.738   3.379
36744SOL    HW112239   9.282   1.734   3.380
36744SOL    HW212240   9.164   1.759   3.288
36745SOL     OW12241   8.674   7.631   4.743
36745SOL    HW112242   8.651   7.723   4.755
36745SOL    HW212243   8.599   7.582   4.777
36746SOL     OW12244   9.114   2.671   3.183
36746SOL    HW112245   9.168   2.622   3.120
36746SOL    HW212246   9.097   2.608   3.253
36747SOL     OW12247   1.792   4.845   8.888
36747SOL    HW112248   1.784   4.750   8.902
36747SOL    HW212249   1.713   4.882   8.928
36748SOL     OW12250   7.147   9.508   8.061
36748SOL    HW112251   7.133   9.597   8.030
36748SOL    HW212252   7.232   9.511   8.106
36749SOL     OW12253   9.048  11.064   1.645
36749SOL    HW112254   8.982  11.054   1.577
36749SOL    HW212255   9.122  11.105   1.600
36750SOL     OW12256   5.541   1.622   2.606
36750SOL    HW112257   5.499   1.700   2.570
36750SOL    HW212258   5.480   1.589   2.671
36751SOL     OW12259   8.689   6.665   3.587
36751SOL    HW112260   8.633   6.693   3.514
36751SOL    HW212261   8.630   6.621   3.648
36752SOL     OW12262   8.820   1.979   9.971
36752SOL    HW112263   8.900   1.990   9.919
36752SOL    HW212264   8.851   1.966  10.060
36753SOL     OW12265   5.732   5.083   3.951
36753SOL    HW112266   5.818   5.090   3.910
36753SOL    HW212267   5.720   5.166   3.996
36754SOL     OW12268   0.560   2.096   9.106
36754SOL    HW112269   0.585   2.004   9.118
36754SOL    HW212270   0.641   2.145   9.120
36755SOL     OW12271   8.385   3.929   3.789
36755SOL    HW112272   8.392   3.860   3.854
36755SOL    HW212273   8.371   4.009   3.839
36756SOL     OW12274   2.675   9.642   5.346
36756SOL    HW112275   2.647   9.733   5.342
36756SOL    HW212276   2.693   9.626   5.438
36757SOL     OW12277   9.891   8.872   0.330
36757SOL    HW112278   9.836   8.795   0.345
36757SOL    HW212279   9.875   8.895   0.238
36758SOL     OW12280   5.318   9.437   6.657
36758SOL    HW112281   5.386   9.382   6.696
36758SOL    HW212282   5.366   9.507   6.614
36759SOL     OW12283  10.602   3.130   5.894
36759SOL    HW112284  10.690   3.101   5.867
36759SOL    HW212285  10.543   3.067   5.853
36760SOL     OW12286   0.662   2.318   7.815
36760SOL    HW112287   0.716   2.380   7.863
36760SOL    HW212288   0.573   2.351   7.823
36761SOL     OW12289   5.744   9.065  10.268
36761SOL    HW112290   5.712   9.153  10.250
36761SOL    HW212291   5.833   9.064  10.232
36762SOL     OW12292   6.185  10.799   7.107
36762SOL    HW112293   6.217  10.713   7.133
36762SOL    HW212294   6.264  10.853   7.101
36763SOL     OW12295   8.230   1.250   9.173
36763SOL    HW112296   8.270   1.186   9.113
36763SOL    HW212297   8.229   1.206   9.258
36764SOL     OW12298   1.417   3.051   6.711
36764SOL    HW112299   1.450   3.094   6.790
36764SOL    HW212300   1.448   3.106   6.639
36765SOL     OW12301  10.995   9.927   9.814
36765SOL    HW112302  10.914   9.881   9.794
36765SOL    HW212303  10.988  10.010   9.767
36766SOL     OW12304   6.814   0.506   1.356
36766SOL    HW112305   6.847   0.507   1.266
36766SOL    HW212306   6.719   0.500   1.346
36767SOL     OW12307   5.404   3.673   3.633
36767SOL    HW112308   5.382   3.638   3.546
36767SOL    HW212309   5.341   3.743   3.647
36768SOL     OW12310  10.246   0.105   7.496
36768SOL    HW112311  10.280   0.061   7.574
36768SOL    HW212312  10.205   0.185   7.529
36769SOL     OW12313   8.420  10.849   4.843
36769SOL    HW112314   8.397  10.942   4.849
36769SOL    HW212315   8.432  10.834   4.749
36770SOL     OW12316   6.824  10.106  10.933
36770SOL    HW112317   6.798  10.082  10.844
36770SOL    HW212318   6.747  10.149  10.970
36771SOL     OW12319   0.563  10.308  10.049
36771SOL    HW112320   0.634  10.365  10.019
36771SOL    HW212321   0.528  10.352  10.126
36772SOL     OW12322   1.107   1.647   6.805
36772SOL    HW112323   1.099   1.664   6.711
36772SOL    HW212324   1.049   1.710   6.846
36773SOL     OW12325   9.840   9.469   8.403
36773SOL    HW112326   9.813   9.454   8.312
36773SOL    HW212327   9.896   9.546   8.399
36774SOL     OW12328   0.921   3.737   0.041
36774SOL    HW112329   0.965   3.784  -0.030
36774SOL    HW212330   0.987   3.731   0.110
36775SOL     OW12331   6.816   4.983   6.506
36775SOL    HW112332   6.738   4.965   6.453
36775SOL    HW212333   6.782   5.000   6.594
36776SOL     OW12334   7.182   6.333   3.183
36776SOL    HW112335   7.264   6.352   3.228
36776SOL    HW212336   7.127   6.409   3.200
36777SOL     OW12337   7.551   9.454   7.770
36777SOL    HW112338   7.599   9.405   7.702
36777SOL    HW212339   7.470   9.404   7.782
36778SOL     OW12340   7.104   3.043   8.761
36778SOL    HW112341   7.077   2.959   8.799
36778SOL    HW212342   7.176   3.072   8.816
36779SOL     OW12343   4.058   8.740   9.479
36779SOL    HW112344   4.010   8.657   9.484
36779SOL    HW212345   4.145   8.719   9.514
36780SOL     OW12346   1.447   2.511   4.533
36780SOL    HW112347   1.511   2.554   4.590
36780SOL    HW212348   1.479   2.421   4.524
36781SOL     OW12349   3.536  10.040   9.096
36781SOL    HW112350   3.617   9.995   9.119
36781SOL    HW212351   3.490  10.051   9.179
36782SOL     OW12352  10.412   8.142   1.018
36782SOL    HW112353  10.404   8.053   1.052
36782SOL    HW212354  10.462   8.132   0.937
36783SOL     OW12355   1.363   4.103   4.000
36783SOL    HW112356   1.395   4.187   4.032
36783SOL    HW212357   1.268   4.113   3.996
36784SOL     OW12358  10.335   6.504   3.835
36784SOL    HW112359  10.410   6.562   3.821
36784SOL    HW212360  10.343   6.475   3.926
36785SOL     OW12361   7.790   4.196   3.226
36785SOL    HW112362   7.807   4.101   3.223
36785SOL    HW212363   7.873   4.234   3.253
36786SOL     OW12364   6.420   4.613   2.711
36786SOL    HW112365   6.476   4.562   2.770
36786SOL    HW212366   6.430   4.703   2.740
36787SOL     OW12367   6.768  10.089   9.971
36787SOL    HW112368   6.799  10.179   9.968
36787SOL    HW212369   6.831  10.044  10.027
36788SOL     OW12370   7.532   8.372   4.779
36788SOL    HW112371   7.475   8.362   4.855
36788SOL    HW212372   7.486   8.433   4.722
36789SOL     OW12373   1.034  10.080   6.432
36789SOL    HW112374   0.959  10.056   6.486
36789SOL    HW212375   0.996  10.098   6.346
36790SOL     OW12376   3.775   0.524   1.310
36790SOL    HW112377   3.796   0.511   1.217
36790SOL    HW212378   3.727   0.445   1.335
36791SOL     OW12379   3.973   0.420   3.654
36791SOL    HW112380   3.959   0.422   3.559
36791SOL    HW212381   3.970   0.327   3.676
36792SOL     OW12382   0.346   3.351   7.194
36792SOL    HW112383   0.324   3.444   7.189
36792SOL    HW212384   0.376   3.337   7.284
36793SOL     OW12385  10.522   2.415   2.949
36793SOL    HW112386  10.449   2.356   2.928
36793SOL    HW212387  10.509   2.490   2.891
36794SOL     OW12388   7.281   3.896   6.481
36794SOL    HW112389   7.317   3.903   6.392
36794SOL    HW212390   7.209   3.958   6.482
36795SOL     OW12391   9.476  10.714   7.201
36795SOL    HW112392   9.393  10.756   7.179
36795SOL    HW212393   9.456  10.661   7.278
36796SOL     OW12394   3.851   1.078  11.082
36796SOL    HW112395   3.840   1.070  10.987
36796SOL    HW212396   3.902   1.158  11.093
36797SOL     OW12397   0.599   2.272   5.669
36797SOL    HW112398   0.678   2.262   5.722
36797SOL    HW212399   0.527   2.251   5.728
36798SOL     OW12400   4.783   6.883  10.835
36798SOL    HW112401   4.831   6.800  10.842
36798SOL    HW212402   4.851   6.950  10.843
36799SOL     OW12403   2.634   8.921   0.315
36799SOL    HW112404   2.543   8.897   0.296
36799SOL    HW212405   2.680   8.837   0.322
36800SOL     OW12406   8.976   4.950   5.648
36800SOL    HW112407   9.006   4.872   5.600
36800SOL    HW212408   8.991   4.928   5.740
36801SOL     OW12409  10.146   7.258   4.607
36801SOL    HW112410  10.182   7.172   4.630
36801SOL    HW212411  10.206   7.292   4.541
36802SOL     OW12412   4.212   7.998   1.483
36802SOL    HW112413   4.123   7.982   1.453
36802SOL    HW212414   4.221   7.942   1.560
36803SOL     OW12415  10.961   6.961   7.032
36803SOL    HW112416  10.928   6.905   6.962
36803SOL    HW212417  10.892   7.026   7.045
36804SOL     OW12418   1.721   7.315   4.422
36804SOL    HW112419   1.806   7.274   4.404
36804SOL    HW212420   1.657   7.245   4.408
36805SOL     OW12421   3.442   4.583   1.659
36805SOL    HW112422   3.349   4.601   1.644
36805SOL    HW212423   3.469   4.533   1.582
36806SOL     OW12424   1.573   3.167  10.403
36806SOL    HW112425   1.501   3.226  10.421
36806SOL    HW212426   1.585   3.117  10.484
36807SOL     OW12427   8.962   5.253   1.436
36807SOL    HW112428   8.934   5.162   1.450
36807SOL    HW212429   9.018   5.249   1.358
36808SOL     OW12430   4.979   0.478   0.567
36808SOL    HW112431   4.942   0.460   0.480
36808SOL    HW212432   5.067   0.512   0.549
36809SOL     OW12433   7.744   0.476   6.473
36809SOL    HW112434   7.666   0.442   6.429
36809SOL    HW212435   7.728   0.461   6.566
36810SOL     OW12436   5.360  10.169   6.171
36810SOL    HW112437   5.280  10.209   6.205
36810SOL    HW212438   5.329  10.101   6.110
36811SOL     OW12439   5.602   2.637   5.008
36811SOL    HW112440   5.696   2.645   4.990
36811SOL    HW212441   5.598   2.591   5.092
36812SOL     OW12442   1.797   9.214   0.403
36812SOL    HW112443   1.837   9.264   0.332
36812SOL    HW212444   1.861   9.145   0.422
36813SOL     OW12445   4.668   6.830   8.355
36813SOL    HW112446   4.624   6.745   8.364
36813SOL    HW212447   4.653   6.874   8.438
36814SOL     OW12448   1.159   8.283  10.507
36814SOL    HW112449   1.129   8.365  10.546
36814SOL    HW212450   1.102   8.216  10.545
36815SOL     OW12451   9.770   5.732   0.619
36815SOL    HW112452   9.814   5.659   0.574
36815SOL    HW212453   9.788   5.808   0.563
36816SOL     OW12454   2.212   5.636   4.954
36816SOL    HW112455   2.273   5.709   4.966
36816SOL    HW212456   2.142   5.653   5.016
36817SOL     OW12457   7.959   9.390   5.298
36817SOL    HW112458   7.878   9.344   5.276
36817SOL    HW212459   7.980   9.441   5.220
36818SOL     OW12460   3.360   3.283  11.083
36818SOL    HW112461   3.293   3.261  11.018
36818SOL    HW212462   3.371   3.377  11.075
36819SOL     OW12463  11.007   9.342   9.138
36819SOL    HW112464  11.023   9.364   9.046
36819SOL    HW212465  10.929   9.392   9.161
36820SOL     OW12466   0.227  10.817   4.443
36820SOL    HW112467   0.278  10.747   4.402
36820SOL    HW212468   0.212  10.788   4.533
36821SOL     OW12469   1.268   8.318   4.746
36821SOL    HW112470   1.344   8.349   4.795
36821SOL    HW212471   1.202   8.298   4.812
36822SOL     OW12472   7.702   8.039   6.111
36822SOL    HW112473   7.621   8.088   6.127
36822SOL    HW212474   7.727   8.004   6.196
36823SOL     OW12475   4.600   0.234   1.863
36823SOL    HW112476   4.542   0.158   1.861
36823SOL    HW212477   4.545   0.307   1.836
36824SOL     OW12478   5.472   7.118   4.294
36824SOL    HW112479   5.437   7.099   4.381
36824SOL    HW212480   5.404   7.169   4.250
36825SOL     OW12481  10.801   9.224   2.857
36825SOL    HW112482  10.706   9.222   2.867
36825SOL    HW212483  10.827   9.307   2.895
36826SOL     OW12484   6.087   6.773   1.498
36826SOL    HW112485   6.062   6.804   1.585
36826SOL    HW212486   6.183   6.767   1.501
36827SOL     OW12487  10.301   3.413   0.907
36827SOL    HW112488  10.312   3.492   0.854
36827SOL    HW212489  10.265   3.349   0.846
36828SOL     OW12490   5.231   9.694   5.427
36828SOL    HW112491   5.141   9.685   5.457
36828SOL    HW212492   5.224   9.741   5.344
36829SOL     OW12493   9.806   9.021   5.895
36829SOL    HW112494   9.878   8.964   5.922
36829SOL    HW212495   9.849   9.096   5.854
36830SOL     OW12496   8.129   1.304   6.529
36830SOL    HW112497   8.145   1.396   6.550
36830SOL    HW212498   8.191   1.256   6.584
36831SOL     OW12499   5.213   1.908   7.899
36831SOL    HW112500   5.209   1.841   7.967
36831SOL    HW212501   5.302   1.942   7.905
36832SOL     OW12502   0.468   9.210   5.838
36832SOL    HW112503   0.405   9.248   5.898
36832SOL    HW212504   0.552   9.247   5.864
36833SOL     OW12505   2.689   3.750   8.995
36833SOL    HW112506   2.779   3.779   8.978
36833SOL    HW212507   2.676   3.764   9.088
36834SOL     OW12508   9.919   2.714   0.667
36834SOL    HW112509   9.828   2.744   0.664
36834SOL    HW212510   9.912   2.619   0.675
36835SOL     OW12511   9.802  10.600   2.114
36835SOL    HW112512   9.870  10.584   2.179
36835SOL    HW212513   9.850  10.609   2.031
36836SOL     OW12514   4.609   8.294   2.325
36836SOL    HW112515   4.514   8.300   2.318
36836SOL    HW212516   4.627   8.309   2.417
36837SOL     OW12517   6.019   2.957   3.212
36837SOL    HW112518   6.062   2.914   3.138
36837SOL    HW212519   5.953   2.894   3.241
36838SOL     OW12520   9.724  10.858   0.964
36838SOL    HW112521   9.708  10.948   0.991
36838SOL    HW212522   9.721  10.861   0.868
36839SOL     OW12523   8.560   1.007   5.260
36839SOL    HW112524   8.564   0.911   5.262
36839SOL    HW212525   8.630   1.035   5.319
36840SOL     OW12526   3.540   5.111   0.462
36840SOL    HW112527   3.549   5.018   0.440
36840SOL    HW212528   3.462   5.115   0.516
36841SOL     OW12529   7.858   1.429   2.538
36841SOL    HW112530   7.951   1.436   2.559
36841SOL    HW212531   7.826   1.519   2.541
36842SOL     OW12532   3.969   2.052   4.466
36842SOL    HW112533   3.984   2.117   4.534
36842SOL    HW212534   3.926   1.979   4.510
36843SOL     OW12535   1.177   6.114   0.959
36843SOL    HW112536   1.259   6.099   0.911
36843SOL    HW212537   1.110   6.069   0.907
36844SOL     OW12538   9.747   8.984   5.362
36844SOL    HW112539   9.794   9.051   5.312
36844SOL    HW212540   9.814   8.919   5.384
36845SOL     OW12541  10.492   4.030   7.386
36845SOL    HW112542  10.487   4.125   7.383
36845SOL    HW212543  10.422   4.004   7.445
36846SOL     OW12544   5.693   2.132   2.025
36846SOL    HW112545   5.669   2.132   2.117
36846SOL    HW212546   5.789   2.137   2.025
36847SOL     OW12547   4.504   7.544   1.355
36847SOL    HW112548   4.502   7.451   1.378
36847SOL    HW212549   4.427   7.581   1.398
36848SOL     OW12550   1.662  11.097   1.880
36848SOL    HW112551   1.650  11.106   1.974
36848SOL    HW212552   1.717  11.019   1.870
36849SOL     OW12553   2.745   0.935   0.346
36849SOL    HW112554   2.765   0.948   0.253
36849SOL    HW212555   2.823   0.967   0.391
36850SOL     OW12556   2.926   2.839   3.259
36850SOL    HW112557   2.867   2.885   3.318
36850SOL    HW212558   2.907   2.746   3.273
36851SOL     OW12559   4.376  10.719   5.443
36851SOL    HW112560   4.328  10.656   5.496
36851SOL    HW212561   4.468  10.704   5.465
36852SOL     OW12562  10.989   4.872   5.333
36852SOL    HW112563  10.924   4.812   5.369
36852SOL    HW212564  11.001   4.938   5.400
36853SOL     OW12565   2.051   5.748   3.672
36853SOL    HW112566   2.025   5.656   3.660
36853SOL    HW212567   1.983   5.785   3.728
36854SOL     OW12568   0.131  10.491   8.588
36854SOL    HW112569   0.065  10.428   8.616
36854SOL    HW212570   0.214  10.445   8.599
36855SOL     OW12571   8.000   7.740   9.280
36855SOL    HW112572   8.018   7.702   9.194
36855SOL    HW212573   7.944   7.815   9.262
36856SOL     OW12574   4.969   6.294   4.585
36856SOL    HW112575   4.995   6.305   4.676
36856SOL    HW212576   4.954   6.200   4.576
36857SOL     OW12577  10.466   2.251   7.992
36857SOL    HW112578  10.478   2.182   8.057
36857SOL    HW212579  10.379   2.286   8.009
36858SOL     OW12580   1.172   0.753   2.811
36858SOL    HW112581   1.145   0.823   2.752
36858SOL    HW212582   1.162   0.673   2.759
36859SOL     OW12583   5.793   8.189   3.759
36859SOL    HW112584   5.711   8.230   3.733
36859SOL    HW212585   5.821   8.238   3.836
36860SOL     OW12586   2.213   9.767   0.143
36860SOL    HW112587   2.209   9.836   0.209
36860SOL    HW212588   2.173   9.691   0.186
36861SOL     OW12589   7.363  10.583   4.888
36861SOL    HW112590   7.395  10.644   4.955
36861SOL    HW212591   7.442  10.558   4.839
36862SOL     OW12592   0.320   1.877   2.638
36862SOL    HW112593   0.390   1.845   2.695
36862SOL    HW212594   0.305   1.967   2.666
36863SOL     OW12595   9.112   7.842   3.291
36863SOL    HW112596   9.141   7.878   3.374
36863SOL    HW212597   9.080   7.754   3.312
36864SOL     OW12598   8.317  10.754   1.149
36864SOL    HW112599   8.311  10.849   1.138
36864SOL    HW212600   8.257  10.734   1.220
36865SOL     OW12601   1.986   1.988   0.325
36865SOL    HW112602   2.029   1.975   0.240
36865SOL    HW212603   2.037   1.935   0.386
36866SOL     OW12604   8.006   8.302   5.896
36866SOL    HW112605   8.069   8.229   5.895
36866SOL    HW212606   8.016   8.343   5.810
36867SOL     OW12607   9.212   8.773   4.780
36867SOL    HW112608   9.192   8.726   4.699
36867SOL    HW212609   9.137   8.830   4.793
36868SOL     OW12610   9.823   3.228   7.060
36868SOL    HW112611   9.853   3.179   7.136
36868SOL    HW212612   9.827   3.164   6.988
36869SOL     OW12613   6.680   8.414   8.288
36869SOL    HW112614   6.596   8.380   8.257
36869SOL    HW212615   6.712   8.467   8.215
36870SOL     OW12616   8.588  10.111   5.727
36870SOL    HW112617   8.587  10.160   5.809
36870SOL    HW212618   8.504  10.065   5.725
36871SOL     OW12619  10.262   4.382   2.388
36871SOL    HW112620  10.348   4.370   2.429
36871SOL    HW212621  10.222   4.454   2.436
36872SOL     OW12622  10.260   3.784   3.923
36872SOL    HW112623  10.352   3.786   3.894
36872SOL    HW212624  10.210   3.808   3.845
36873SOL     OW12625   1.298  10.513   9.761
36873SOL    HW112626   1.285  10.446   9.694
36873SOL    HW212627   1.313  10.464   9.841
36874SOL     OW12628   8.403   7.773   8.862
36874SOL    HW112629   8.485   7.743   8.901
36874SOL    HW212630   8.350   7.693   8.854
36875SOL     OW12631   9.550   0.628  10.596
36875SOL    HW112632   9.542   0.542  10.553
36875SOL    HW212633   9.468   0.673  10.575
36876SOL     OW12634   7.024   1.161   1.517
36876SOL    HW112635   7.078   1.135   1.442
36876SOL    HW212636   6.939   1.183   1.478
36877SOL     OW12637   6.470   8.683   5.432
36877SOL    HW112638   6.513   8.653   5.351
36877SOL    HW212639   6.441   8.772   5.412
36878SOL     OW12640   0.925   1.427   8.536
36878SOL    HW112641   0.953   1.396   8.449
36878SOL    HW212642   0.876   1.353   8.572
36879SOL     OW12643   2.123   1.884   9.568
36879SOL    HW112644   2.208   1.917   9.539
36879SOL    HW212645   2.094   1.946   9.635
36880SOL     OW12646   9.111   6.614   5.905
36880SOL    HW112647   9.176   6.614   5.975
36880SOL    HW212648   9.150   6.560   5.836
36881SOL     OW12649   0.637   1.220   6.648
36881SOL    HW112650   0.676   1.214   6.735
36881SOL    HW212651   0.559   1.274   6.659
36882SOL     OW12652   8.735   2.953   5.086
36882SOL    HW112653   8.673   2.956   5.158
36882SOL    HW212654   8.687   2.989   5.011
36883SOL     OW12655   5.098   0.444   7.483
36883SOL    HW112656   5.140   0.530   7.479
36883SOL    HW212657   5.144   0.398   7.553
36884SOL     OW12658   9.367   1.943   4.229
36884SOL    HW112659   9.288   1.952   4.282
36884SOL    HW212660   9.360   1.855   4.190
36885SOL     OW12661  10.678   1.595   5.286
36885SOL    HW112662  10.592   1.553   5.295
36885SOL    HW212663  10.740   1.522   5.288
36886SOL     OW12664   9.406   7.555   8.408
36886SOL    HW112665   9.351   7.477   8.417
36886SOL    HW212666   9.485   7.523   8.365
36887SOL     OW12667   1.092  10.830   4.899
36887SOL    HW112668   1.174  10.806   4.855
36887SOL    HW212669   1.059  10.905   4.849
36888SOL     OW12670   5.429   3.904  10.264
36888SOL    HW112671   5.481   3.973  10.223
36888SOL    HW212672   5.492   3.856  10.318
36889SOL     OW12673   2.870   2.245   5.715
36889SOL    HW112674   2.903   2.254   5.804
36889SOL    HW212675   2.781   2.280   5.718
36890SOL     OW12676  10.916   4.325   6.430
36890SOL    HW112677  10.962   4.336   6.513
36890SOL    HW212678  10.969   4.374   6.367
36891SOL     OW12679  10.460   2.879   3.606
36891SOL    HW112680  10.545   2.918   3.628
36891SOL    HW212681  10.461   2.794   3.650
36892SOL     OW12682   8.144  10.293   3.224
36892SOL    HW112683   8.225  10.296   3.275
36892SOL    HW212684   8.150  10.368   3.165
36893SOL     OW12685   2.987   1.107   0.390
36893SOL    HW112686   3.078   1.109   0.359
36893SOL    HW212687   2.970   1.195   0.421
36894SOL     OW12688   6.582   3.484   7.526
36894SOL    HW112689   6.645   3.412   7.520
36894SOL    HW212690   6.629   3.559   7.489
36895SOL     OW12691   7.928   9.729   6.687
36895SOL    HW112692   7.927   9.803   6.627
36895SOL    HW212693   7.845   9.735   6.734
36896SOL     OW12694   1.605   7.703   9.207
36896SOL    HW112695   1.572   7.772   9.150
36896SOL    HW212696   1.695   7.688   9.177
36897SOL     OW12697   9.805   0.959   3.604
36897SOL    HW112698   9.737   0.893   3.588
36897SOL    HW212699   9.829   0.947   3.696
36898SOL     OW12700   9.220   8.363   8.646
36898SOL    HW112701   9.215   8.438   8.705
36898SOL    HW212702   9.132   8.355   8.610
36899SOL     OW12703   2.279   5.624   5.265
36899SOL    HW112704   2.322   5.664   5.189
36899SOL    HW212705   2.186   5.635   5.248
36900SOL     OW12706  10.551   1.005   5.582
36900SOL    HW112707  10.553   0.988   5.488
36900SOL    HW212708  10.464   0.976   5.610
36901SOL     OW12709   1.531   9.956   8.213
36901SOL    HW112710   1.606  10.003   8.176
36901SOL    HW212711   1.514   9.886   8.150
36902SOL     OW12712   9.559   2.187   5.600
36902SOL    HW112713   9.586   2.155   5.513
36902SOL    HW212714   9.610   2.134   5.661
36903SOL     OW12715   1.701   9.298   2.351
36903SOL    HW112716   1.739   9.216   2.318
36903SOL    HW212717   1.718   9.361   2.281
36904SOL     OW12718   0.413   7.384   2.298
36904SOL    HW112719   0.340   7.443   2.278
36904SOL    HW212720   0.462   7.428   2.367
36905SOL     OW12721   7.773   1.262   3.361
36905SOL    HW112722   7.713   1.314   3.307
36905SOL    HW212723   7.810   1.198   3.300
36906SOL     OW12724   3.017   9.227   3.949
36906SOL    HW112725   2.924   9.207   3.941
36906SOL    HW212726   3.060   9.164   3.890
36907SOL     OW12727   4.840   8.906   2.393
36907SOL    HW112728   4.863   8.936   2.305
36907SOL    HW212729   4.745   8.900   2.392
36908SOL     OW12730   6.913   3.331   8.182
36908SOL    HW112731   6.821   3.309   8.169
36908SOL    HW212732   6.912   3.410   8.236
36909SOL     OW12733   2.952   2.514   6.448
36909SOL    HW112734   3.016   2.444   6.436
36909SOL    HW212735   2.867   2.470   6.438
36910SOL     OW12736   6.654   0.773   1.156
36910SOL    HW112737   6.582   0.810   1.207
36910SOL    HW212738   6.658   0.681   1.183
36911SOL     OW12739   3.923   7.271   5.711
36911SOL    HW112740   3.913   7.312   5.625
36911SOL    HW212741   4.005   7.307   5.745
36912SOL     OW12742   1.724   9.161   0.675
36912SOL    HW112743   1.629   9.156   0.678
36912SOL    HW212744   1.745   9.168   0.581
36913SOL     OW12745   9.430   8.577   3.046
36913SOL    HW112746   9.515   8.563   3.004
36913SOL    HW212747   9.447   8.565   3.139
36914SOL     OW12748   8.107   3.393  10.338
36914SOL    HW112749   8.104   3.298  10.328
36914SOL    HW212750   8.140   3.407  10.426
36915SOL     OW12751   4.582   9.454   5.727
36915SOL    HW112752   4.580   9.365   5.690
36915SOL    HW212753   4.517   9.452   5.797
36916SOL     OW12754   3.019   7.276   5.176
36916SOL    HW112755   3.055   7.293   5.263
36916SOL    HW212756   3.014   7.362   5.134
36917SOL     OW12757  10.030   6.294   8.324
36917SOL    HW112758  10.074   6.377   8.339
36917SOL    HW212759   9.982   6.276   8.405
36918SOL     OW12760   6.182   9.078   2.305
36918SOL    HW112761   6.222   9.150   2.256
36918SOL    HW212762   6.125   9.035   2.241
36919SOL     OW12763   1.010   0.411   0.909
36919SOL    HW112764   1.011   0.417   0.813
36919SOL    HW212765   1.030   0.319   0.926
36920SOL     OW12766   2.993   8.566   3.741
36920SOL    HW112767   3.057   8.528   3.679
36920SOL    HW212768   3.027   8.543   3.827
36921SOL     OW12769  10.225   1.484  10.895
36921SOL    HW112770  10.197   1.555  10.952
36921SOL    HW212771  10.225   1.522  10.807
36922SOL     OW12772   6.051   6.748   6.213
36922SOL    HW112773   6.137   6.727   6.176
36922SOL    HW212774   6.070   6.798   6.292
36923SOL     OW12775   8.637   5.991   6.725
36923SOL    HW112776   8.553   6.033   6.741
36923SOL    HW212777   8.647   5.927   6.796
36924SOL     OW12778   2.801   3.931   4.818
36924SOL    HW112779   2.811   4.010   4.871
36924SOL    HW212780   2.891   3.900   4.804
36925SOL     OW12781   8.644   3.178   7.058
36925SOL    HW112782   8.735   3.148   7.052
36925SOL    HW212783   8.632   3.202   7.150
36926SOL     OW12784   0.479   4.026   8.627
36926SOL    HW112785   0.488   4.081   8.549
36926SOL    HW212786   0.523   4.075   8.696
36927SOL     OW12787   6.056   2.535   2.315
36927SOL    HW112788   5.985   2.481   2.350
36927SOL    HW212789   6.026   2.625   2.327
36928SOL     OW12790   3.034   7.135   4.251
36928SOL    HW112791   3.125   7.149   4.226
36928SOL    HW212792   3.001   7.222   4.273
36929SOL     OW12793  11.030   2.217   4.589
36929SOL    HW112794  10.969   2.166   4.536
36929SOL    HW212795  11.116   2.177   4.572
36930SOL     OW12796   3.884   1.243   2.340
36930SOL    HW112797   3.896   1.183   2.265
36930SOL    HW212798   3.967   1.240   2.387
36931SOL     OW12799   4.507   8.486   6.474
36931SOL    HW112800   4.419   8.516   6.451
36931SOL    HW212801   4.556   8.492   6.392
36932SOL     OW12802   8.548   9.872   3.318
36932SOL    HW112803   8.629   9.829   3.288
36932SOL    HW212804   8.566   9.897   3.408
36933SOL     OW12805   6.835   4.470   8.792
36933SOL    HW112806   6.848   4.466   8.886
36933SOL    HW212807   6.843   4.379   8.763
36934SOL     OW12808   1.388   1.867  10.269
36934SOL    HW112809   1.297   1.852  10.243
36934SOL    HW212810   1.382   1.898  10.359
36935SOL     OW12811   2.856  10.251   0.524
36935SOL    HW112812   2.902  10.221   0.445
36935SOL    HW212813   2.924  10.254   0.591
36936SOL     OW12814   1.997   8.649   6.973
36936SOL    HW112815   1.998   8.648   6.877
36936SOL    HW212816   2.075   8.699   6.997
36937SOL     OW12817   8.477   1.404   9.136
36937SOL    HW112818   8.385   1.383   9.152
36937SOL    HW212819   8.524   1.358   9.205
36938SOL     OW12820   9.220   2.603  10.197
36938SOL    HW112821   9.219   2.628  10.104
36938SOL    HW212822   9.300   2.550  10.206
36939SOL     OW12823   8.558   9.710   6.145
36939SOL    HW112824   8.564   9.800   6.176
36939SOL    HW212825   8.557   9.717   6.049
36940SOL     OW12826  10.225   2.943   3.765
36940SOL    HW112827  10.303   2.947   3.709
36940SOL    HW212828  10.231   2.857   3.807
36941SOL     OW12829   2.404   8.714   9.172
36941SOL    HW112830   2.377   8.632   9.129
36941SOL    HW212831   2.464   8.754   9.109
36942SOL     OW12832   9.929   1.280   6.852
36942SOL    HW112833   9.903   1.260   6.762
36942SOL    HW212834   9.978   1.203   6.880
36943SOL     OW12835   2.025   6.678   4.470
36943SOL    HW112836   1.957   6.652   4.408
36943SOL    HW212837   2.009   6.771   4.486
36944SOL     OW12838   5.263   9.175   0.944
36944SOL    HW112839   5.243   9.240   0.876
36944SOL    HW212840   5.262   9.224   1.026
36945SOL     OW12841   0.993   1.678   0.350
36945SOL    HW112842   1.014   1.770   0.365
36945SOL    HW212843   0.978   1.641   0.437
36946SOL     OW12844   6.264   2.048   7.425
36946SOL    HW112845   6.238   2.084   7.510
36946SOL    HW212846   6.267   1.953   7.439
36947SOL     OW12847   2.435   3.183   9.897
36947SOL    HW112848   2.480   3.111   9.852
36947SOL    HW212849   2.358   3.200   9.842
36948SOL     OW12850   7.232   6.314   6.530
36948SOL    HW112851   7.248   6.312   6.435
36948SOL    HW212852   7.232   6.222   6.555
36949SOL     OW12853   7.855   0.532   4.559
36949SOL    HW112854   7.824   0.615   4.523
36949SOL    HW212855   7.806   0.465   4.510
36950SOL     OW12856   7.168   7.573   3.799
36950SOL    HW112857   7.150   7.510   3.869
36950SOL    HW212858   7.170   7.520   3.719
36951SOL     OW12859   4.009  10.361   0.605
36951SOL    HW112860   3.940  10.414   0.644
36951SOL    HW212861   3.966  10.279   0.581
36952SOL     OW12862   0.440   4.466   2.855
36952SOL    HW112863   0.400   4.385   2.888
36952SOL    HW212864   0.381   4.535   2.884
36953SOL     OW12865   4.269  10.898   6.830
36953SOL    HW112866   4.230  10.834   6.771
36953SOL    HW212867   4.264  10.857   6.916
36954SOL     OW12868   2.196   6.849   3.925
36954SOL    HW112869   2.166   6.936   3.949
36954SOL    HW212870   2.143   6.790   3.978
36955SOL     OW12871   9.964   8.803   5.468
36955SOL    HW112872  10.041   8.810   5.525
36955SOL    HW212873   9.994   8.749   5.394
36956SOL     OW12874   5.829   2.898   9.219
36956SOL    HW112875   5.773   2.820   9.216
36956SOL    HW212876   5.773   2.970   9.191
36957SOL     OW12877   0.200   6.748   3.046
36957SOL    HW112878   0.121   6.802   3.044
36957SOL    HW212879   0.167   6.658   3.054
36958SOL     OW12880   4.370   9.215  10.874
36958SOL    HW112881   4.456   9.250  10.851
36958SOL    HW212882   4.358   9.238  10.966
36959SOL     OW12883   2.813   4.775   7.742
36959SOL    HW112884   2.719   4.767   7.758
36959SOL    HW212885   2.834   4.865   7.767
36960SOL     OW12886  10.656   9.330   3.377
36960SOL    HW112887  10.717   9.346   3.304
36960SOL    HW212888  10.571   9.315   3.335
36961SOL     OW12889   2.588   0.984   0.884
36961SOL    HW112890   2.635   1.016   0.961
36961SOL    HW212891   2.508   1.036   0.881
36962SOL     OW12892   4.393   3.393   6.668
36962SOL    HW112893   4.354   3.336   6.601
36962SOL    HW212894   4.373   3.350   6.751
36963SOL     OW12895   9.753   7.418   4.993
36963SOL    HW112896   9.683   7.376   4.943
36963SOL    HW212897   9.715   7.434   5.079
36964SOL     OW12898   0.434   8.734   3.736
36964SOL    HW112899   0.376   8.667   3.699
36964SOL    HW212900   0.522   8.697   3.728
36965SOL     OW12901   1.363   7.981   6.218
36965SOL    HW112902   1.349   7.995   6.124
36965SOL    HW212903   1.411   7.898   6.222
36966SOL     OW12904   3.660   2.856  10.243
36966SOL    HW112905   3.638   2.771  10.204
36966SOL    HW212906   3.697   2.834  10.328
36967SOL     OW12907   8.672   0.730   4.842
36967SOL    HW112908   8.664   0.814   4.797
36967SOL    HW212909   8.665   0.665   4.772
36968SOL     OW12910   5.678   2.376   4.474
36968SOL    HW112911   5.590   2.345   4.453
36968SOL    HW212912   5.735   2.303   4.449
36969SOL     OW12913   3.081   0.853  10.225
36969SOL    HW112914   3.013   0.820  10.283
36969SOL    HW212915   3.059   0.945  10.211
36970SOL     OW12916  10.140   3.670   4.657
36970SOL    HW112917  10.233   3.679   4.636
36970SOL    HW212918  10.129   3.717   4.739
36971SOL     OW12919   1.149   3.378   3.006
36971SOL    HW112920   1.238   3.411   2.992
36971SOL    HW212921   1.135   3.387   3.100
36972SOL     OW12922   0.307   8.579   0.945
36972SOL    HW112923   0.314   8.673   0.960
36972SOL    HW212924   0.395   8.552   0.919
36973SOL     OW12925   7.467   9.417   5.820
36973SOL    HW112926   7.384   9.453   5.789
36973SOL    HW212927   7.476   9.334   5.772
36974SOL     OW12928   2.320   4.957   7.948
36974SOL    HW112929   2.246   5.011   7.921
36974SOL    HW212930   2.357   5.003   8.023
36975SOL     OW12931   1.726  10.938   8.292
36975SOL    HW112932   1.681  11.018   8.266
36975SOL    HW212933   1.817  10.953   8.265
36976SOL     OW12934   6.525  10.536   9.672
36976SOL    HW112935   6.522  10.626   9.704
36976SOL    HW212936   6.487  10.484   9.743
36977SOL     OW12937   3.481   8.473   0.564
36977SOL    HW112938   3.525   8.472   0.649
36977SOL    HW212939   3.396   8.513   0.581
36978SOL     OW12940   6.305   3.987   1.770
36978SOL    HW112941   6.374   3.988   1.704
36978SOL    HW212942   6.283   4.079   1.783
36979SOL     OW12943   2.107   9.188   3.079
36979SOL    HW112944   2.111   9.283   3.070
36979SOL    HW212945   2.183   9.166   3.133
36980SOL     OW12946   9.249   9.411   9.550
36980SOL    HW112947   9.263   9.327   9.594
36980SOL    HW212948   9.337   9.440   9.525
36981SOL     OW12949   0.500   1.321   4.539
36981SOL    HW112950   0.418   1.295   4.497
36981SOL    HW212951   0.543   1.238   4.561
36982SOL     OW12952   3.348  10.746   5.253
36982SOL    HW112953   3.350  10.747   5.157
36982SOL    HW212954   3.290  10.673   5.275
36983SOL     OW12955   9.513   6.678  10.546
36983SOL    HW112956   9.573   6.729  10.600
36983SOL    HW212957   9.561   6.597  10.528
36984SOL     OW12958  10.645  10.335   0.961
36984SOL    HW112959  10.708  10.264   0.973
36984SOL    HW212960  10.630  10.338   0.866
36985SOL     OW12961   8.268   2.668   9.368
36985SOL    HW112962   8.320   2.592   9.394
36985SOL    HW212963   8.331   2.740   9.364
36986SOL     OW12964   9.863   9.164   7.906
36986SOL    HW112965   9.946   9.118   7.893
36986SOL    HW212966   9.882   9.255   7.883
36987SOL     OW12967   1.452  10.812   6.742
36987SOL    HW112968   1.523  10.876   6.744
36987SOL    HW212969   1.393  10.843   6.673
36988SOL     OW12970   2.483   5.367   7.032
36988SOL    HW112971   2.523   5.350   6.947
36988SOL    HW212972   2.545   5.424   7.077
36989SOL     OW12973   7.402   1.299   7.530
36989SOL    HW112974   7.450   1.375   7.562
36989SOL    HW212975   7.310   1.317   7.551
36990SOL     OW12976   3.453   1.689  10.595
36990SOL    HW112977   3.387   1.744  10.553
36990SOL    HW212978   3.526   1.688  10.533
36991SOL     OW12979   4.492   8.490   8.164
36991SOL    HW112980   4.423   8.536   8.211
36991SOL    HW212981   4.572   8.511   8.212
36992SOL     OW12982   1.553   9.141   0.249
36992SOL    HW112983   1.613   9.186   0.308
36992SOL    HW212984   1.553   9.195   0.170
36993SOL     OW12985   7.194  10.454   1.813
36993SOL    HW112986   7.289  10.455   1.825
36993SOL    HW212987   7.179  10.511   1.737
36994SOL     OW12988   5.723  10.865   9.669
36994SOL    HW112989   5.633  10.833   9.673
36994SOL    HW212990   5.776  10.786   9.659
36995SOL     OW12991   3.354   0.594  10.270
36995SOL    HW112992   3.317   0.544  10.343
36995SOL    HW212993   3.295   0.576  10.196
36996SOL     OW12994   1.283   8.917   7.138
36996SOL    HW112995   1.343   8.846   7.114
36996SOL    HW212996   1.198   8.888   7.106
36997SOL     OW12997  10.417   9.457   7.634
36997SOL    HW112998  10.502   9.415   7.644
36997SOL    HW212999  10.429   9.545   7.670
36998SOL     OW13000   4.786   2.051   2.932
36998SOL    HW113001   4.868   2.006   2.951
36998SOL    HW213002   4.778   2.117   3.000
36999SOL     OW13003   2.085   5.636   2.477
36999SOL    HW113004   2.176   5.625   2.504
36999SOL    HW213005   2.088   5.706   2.412
37000SOL     OW13006   9.372   1.396   6.392
37000SOL    HW113007   9.420   1.414   6.473
37000SOL    HW213008   9.281   1.384   6.420
37001SOL     OW13009  10.778   4.608   9.658
37001SOL    HW113010  10.684   4.596   9.644
37001SOL    HW213011  10.806   4.663   9.585
37002SOL     OW13012   3.106   1.735  10.437
37002SOL    HW113013   3.015   1.733  10.407
37002SOL    HW213014   3.158   1.724  10.357
37003SOL     OW13015   8.651   4.065  10.433
37003SOL    HW113016   8.695   4.017  10.503
37003SOL    HW213017   8.713   4.063  10.360
37004SOL     OW13018   0.464   3.827  11.097
37004SOL    HW113019   0.493   3.737  11.080
37004SOL    HW213020   0.396   3.818  11.164
37005SOL     OW13021   9.807   1.058   0.709
37005SOL    HW113022   9.859   1.006   0.770
37005SOL    HW213023   9.850   1.046   0.624
37006SOL     OW13024   6.326   3.156   0.393
37006SOL    HW113025   6.268   3.225   0.425
37006SOL    HW213026   6.333   3.172   0.299
37007SOL     OW13027   9.658   1.105   4.136
37007SOL    HW113028   9.746   1.131   4.162
37007SOL    HW213029   9.663   1.010   4.127
37008SOL     OW13030   8.067   3.366   7.275
37008SOL    HW113031   8.134   3.301   7.296
37008SOL    HW213032   8.094   3.402   7.190
37009SOL     OW13033   6.416   0.316   8.359
37009SOL    HW113034   6.499   0.285   8.395
37009SOL    HW213035   6.362   0.237   8.354
37010SOL     OW13036   2.190   1.819   0.844
37010SOL    HW113037   2.193   1.780   0.931
37010SOL    HW213038   2.272   1.868   0.837
37011SOL     OW13039   7.308   8.409   4.372
37011SOL    HW113040   7.295   8.385   4.463
37011SOL    HW213041   7.357   8.335   4.335
37012SOL     OW13042   0.490  10.001   7.936
37012SOL    HW113043   0.574   9.959   7.915
37012SOL    HW213044   0.424   9.937   7.907
37013SOL     OW13045  10.491   1.294   7.776
37013SOL    HW113046  10.430   1.243   7.829
37013SOL    HW213047  10.578   1.260   7.799
37014SOL     OW13048   0.453  10.254   8.062
37014SOL    HW113049   0.548  10.264   8.070
37014SOL    HW213050   0.442  10.170   8.017
37015SOL     OW13051   7.961  10.383   6.547
37015SOL    HW113052   7.961  10.306   6.490
37015SOL    HW213053   8.044  10.426   6.527
37016SOL     OW13054   2.957   1.859   7.242
37016SOL    HW113055   3.019   1.838   7.172
37016SOL    HW213056   2.881   1.895   7.196
37017SOL     OW13057   1.255   1.018   7.147
37017SOL    HW113058   1.182   0.968   7.183
37017SOL    HW213059   1.216   1.072   7.078
37018SOL     OW13060  10.759   8.752   5.852
37018SOL    HW113061  10.842   8.796   5.871
37018SOL    HW213062  10.693   8.821   5.858
37019SOL     OW13063   7.423   1.401   3.398
37019SOL    HW113064   7.475   1.395   3.478
37019SOL    HW213065   7.488   1.406   3.328
37020SOL     OW13066   0.911   8.522   5.617
37020SOL    HW113067   0.910   8.555   5.707
37020SOL    HW213068   0.930   8.599   5.563
37021SOL     OW13069   9.543   0.868   6.817
37021SOL    HW113070   9.523   0.870   6.910
37021SOL    HW213071   9.522   0.956   6.785
37022SOL     OW13072  10.194   5.720   4.433
37022SOL    HW113073  10.149   5.739   4.351
37022SOL    HW213074  10.163   5.633   4.458
37023SOL     OW13075  10.442   9.257   7.095
37023SOL    HW113076  10.490   9.174   7.102
37023SOL    HW213077  10.503   9.323   7.129
37024SOL     OW13078   7.622   9.458   8.680
37024SOL    HW113079   7.570   9.385   8.646
37024SOL    HW213080   7.681   9.480   8.608
37025SOL     OW13081   0.376  11.023   0.126
37025SOL    HW113082   0.444  10.996   0.188
37025SOL    HW213083   0.334  10.941   0.100
37026SOL     OW13084  11.092   1.373   0.969
37026SOL    HW113085  11.149   1.442   1.003
37026SOL    HW213086  11.010   1.385   1.016
37027SOL     OW13087   9.236   1.605   7.132
37027SOL    HW113088   9.207   1.655   7.208
37027SOL    HW213089   9.291   1.666   7.083
37028SOL     OW13090   8.937   0.678   5.814
37028SOL    HW113091   8.930   0.639   5.727
37028SOL    HW213092   9.030   0.673   5.835
37029SOL     OW13093  10.971   0.306   0.476
37029SOL    HW113094  10.960   0.338   0.386
37029SOL    HW213095  11.066   0.298   0.487
37030SOL     OW13096   0.998   5.815   2.233
37030SOL    HW113097   1.048   5.799   2.313
37030SOL    HW213098   0.925   5.753   2.237
37031SOL     OW13099   0.852   4.037   9.315
37031SOL    HW113100   0.763   4.005   9.298
37031SOL    HW213101   0.908   3.961   9.297
37032SOL     OW13102   3.659   8.331   6.117
37032SOL    HW113103   3.596   8.261   6.136
37032SOL    HW213104   3.667   8.379   6.199
37033SOL     OW13105   2.664   3.082   5.840
37033SOL    HW113106   2.662   3.019   5.768
37033SOL    HW213107   2.576   3.118   5.843
37034SOL     OW13108   2.614   5.613   3.602
37034SOL    HW113109   2.634   5.706   3.601
37034SOL    HW213110   2.669   5.576   3.532
37035SOL     OW13111   9.090   9.878   6.842
37035SOL    HW113112   9.131   9.916   6.764
37035SOL    HW213113   9.137   9.917   6.916
37036SOL     OW13114   6.262   0.415   2.218
37036SOL    HW113115   6.251   0.399   2.124
37036SOL    HW213116   6.176   0.396   2.256
37037SOL     OW13117  10.741   8.636   6.480
37037SOL    HW113118  10.734   8.725   6.445
37037SOL    HW213119  10.677   8.585   6.430
37038SOL     OW13120   3.720   2.776   9.106
37038SOL    HW113121   3.643   2.821   9.071
37038SOL    HW213122   3.693   2.745   9.192
37039SOL     OW13123   4.974   7.065   4.413
37039SOL    HW113124   5.028   7.014   4.473
37039SOL    HW213125   4.929   6.999   4.360
37040SOL     OW13126   1.820  10.751   6.443
37040SOL    HW113127   1.851  10.761   6.533
37040SOL    HW213128   1.725  10.749   6.450
37041SOL     OW13129   0.732   4.393  10.847
37041SOL    HW113130   0.814   4.355  10.878
37041SOL    HW213131   0.667   4.324  10.860
37042SOL     OW13132   5.257   2.236   0.292
37042SOL    HW113133   5.220   2.320   0.319
37042SOL    HW213134   5.312   2.257   0.216
37043SOL     OW13135   3.050   7.602   6.939
37043SOL    HW113136   3.089   7.581   7.024
37043SOL    HW213137   3.071   7.694   6.925
37044SOL     OW13138   0.127   8.814   8.480
37044SOL    HW113139   0.115   8.907   8.495
37044SOL    HW213140   0.219   8.798   8.499
37045SOL     OW13141   2.079   5.108   9.666
37045SOL    HW113142   2.102   5.015   9.670
37045SOL    HW213143   2.036   5.126   9.749
37046SOL     OW13144   9.358  10.266   1.428
37046SOL    HW113145   9.422  10.336   1.418
37046SOL    HW213146   9.302  10.273   1.350
37047SOL     OW13147   2.160   2.362   8.283
37047SOL    HW113148   2.112   2.388   8.361
37047SOL    HW213149   2.187   2.271   8.300
37048SOL     OW13150   8.018   6.199   4.516
37048SOL    HW113151   7.929   6.169   4.495
37048SOL    HW213152   8.022   6.198   4.611
37049SOL     OW13153  10.854   8.450   7.651
37049SOL    HW113154  10.879   8.520   7.711
37049SOL    HW213155  10.811   8.385   7.706
37050SOL     OW13156   8.986   6.522   5.272
37050SOL    HW113157   8.971   6.447   5.214
37050SOL    HW213158   9.075   6.550   5.251
37051SOL     OW13159  11.022  10.834   4.401
37051SOL    HW113160  11.021  10.759   4.459
37051SOL    HW213161  11.032  10.910   4.459
37052SOL     OW13162   2.323   2.088   2.686
37052SOL    HW113163   2.287   1.999   2.688
37052SOL    HW213164   2.261   2.140   2.737
37053SOL     OW13165   9.245   3.022   0.897
37053SOL    HW113166   9.265   3.115   0.903
37053SOL    HW213167   9.176   3.016   0.831
37054SOL     OW13168   2.800   1.384   0.779
37054SOL    HW113169   2.750   1.306   0.754
37054SOL    HW213170   2.784   1.394   0.873
37055SOL     OW13171   0.659   3.054   6.431
37055SOL    HW113172   0.661   3.064   6.526
37055SOL    HW213173   0.706   3.130   6.398
37056SOL     OW13174   7.136  10.202   2.662
37056SOL    HW113175   7.119  10.295   2.675
37056SOL    HW213176   7.207  10.181   2.723
37057SOL     OW13177   8.187   4.895   1.295
37057SOL    HW113178   8.160   4.814   1.338
37057SOL    HW213179   8.230   4.865   1.214
37058SOL     OW13180  10.388  11.067   4.410
37058SOL    HW113181  10.478  11.073   4.442
37058SOL    HW213182  10.355  11.156   4.416
37059SOL     OW13183   4.120   4.216   9.374
37059SOL    HW113184   4.037   4.192   9.416
37059SOL    HW213185   4.112   4.309   9.356
37060SOL     OW13186   7.892   2.991   3.286
37060SOL    HW113187   7.826   3.031   3.343
37060SOL    HW213188   7.913   3.059   3.222
37061SOL     OW13189   4.766   3.476   8.082
37061SOL    HW113190   4.731   3.522   8.006
37061SOL    HW213191   4.861   3.480   8.070
37062SOL     OW13192   6.788   0.605   8.657
37062SOL    HW113193   6.804   0.530   8.600
37062SOL    HW213194   6.693   0.609   8.665
37063SOL     OW13195   2.842   9.214   1.449
37063SOL    HW113196   2.772   9.151   1.466
37063SOL    HW213197   2.815   9.259   1.369
37064SOL     OW13198   7.784   3.716   4.057
37064SOL    HW113199   7.704   3.680   4.019
37064SOL    HW213200   7.778   3.695   4.150
37065SOL     OW13201   6.346   0.186   3.122
37065SOL    HW113202   6.309   0.113   3.171
37065SOL    HW213203   6.440   0.180   3.139
37066SOL     OW13204   2.815   0.314   9.253
37066SOL    HW113205   2.780   0.401   9.269
37066SOL    HW213206   2.741   0.255   9.266
37067SOL     OW13207   5.563   0.885   2.132
37067SOL    HW113208   5.496   0.819   2.114
37067SOL    HW213209   5.514   0.963   2.157
37068SOL     OW13210   3.837   9.129   4.810
37068SOL    HW113211   3.873   9.189   4.744
37068SOL    HW213212   3.876   9.157   4.892
37069SOL     OW13213   9.699   6.586   2.475
37069SOL    HW113214   9.632   6.654   2.478
37069SOL    HW213215   9.740   6.588   2.561
37070SOL     OW13216   3.931   4.797   6.090
37070SOL    HW113217   3.836   4.788   6.084
37070SOL    HW213218   3.961   4.711   6.121
37071SOL     OW13219  10.894   7.247   6.758
37071SOL    HW113220  10.919   7.228   6.667
37071SOL    HW213221  10.834   7.321   6.751
37072SOL     OW13222  10.157   3.528   8.119
37072SOL    HW113223  10.157   3.451   8.176
37072SOL    HW213224  10.170   3.602   8.178
37073SOL     OW13225   5.256   4.137   8.181
37073SOL    HW113226   5.161   4.148   8.175
37073SOL    HW213227   5.288   4.158   8.093
37074SOL     OW13228  10.022  10.689   6.208
37074SOL    HW113229  10.038  10.761   6.146
37074SOL    HW213230   9.934  10.705   6.242
37075SOL     OW13231   0.388   5.229   6.571
37075SOL    HW113232   0.481   5.235   6.550
37075SOL    HW213233   0.361   5.145   6.534
37076SOL     OW13234   9.781   4.513   8.257
37076SOL    HW113235   9.772   4.578   8.187
37076SOL    HW213236   9.875   4.495   8.261
37077SOL     OW13237  10.503   0.319   6.325
37077SOL    HW113238  10.598   0.310   6.322
37077SOL    HW213239  10.471   0.229   6.338
37078SOL     OW13240   1.751   8.748   6.791
37078SOL    HW113241   1.742   8.666   6.742
37078SOL    HW213242   1.827   8.791   6.752
37079SOL     OW13243   5.176  10.103   0.627
37079SOL    HW113244   5.198  10.104   0.534
37079SOL    HW213245   5.154  10.011   0.644
37080SOL     OW13246   1.058   3.119   2.959
37080SOL    HW113247   1.118   3.071   2.901
37080SOL    HW213248   1.105   3.200   2.980
37081SOL     OW13249   8.594   3.239   4.272
37081SOL    HW113250   8.527   3.264   4.208
37081SOL    HW213251   8.676   3.246   4.223
37082SOL     OW13252   3.780  10.703   7.210
37082SOL    HW113253   3.713  10.762   7.245
37082SOL    HW213254   3.736  10.618   7.203
37083SOL     OW13255   8.143   3.866   6.182
37083SOL    HW113256   8.110   3.832   6.098
37083SOL    HW213257   8.172   3.955   6.162
37084SOL     OW13258   9.542   0.954   2.086
37084SOL    HW113259   9.505   0.869   2.109
37084SOL    HW213260   9.493   1.017   2.139
37085SOL     OW13261   3.000   4.461   6.531
37085SOL    HW113262   2.926   4.407   6.503
37085SOL    HW213263   3.071   4.435   6.472
37086SOL     OW13264   7.158   4.311   6.965
37086SOL    HW113265   7.148   4.233   7.019
37086SOL    HW213266   7.167   4.383   7.027
37087SOL     OW13267   8.867   1.335   3.470
37087SOL    HW113268   8.897   1.376   3.389
37087SOL    HW213269   8.945   1.333   3.526
37088SOL     OW13270   4.400   3.591   9.190
37088SOL    HW113271   4.404   3.638   9.106
37088SOL    HW213272   4.311   3.555   9.193
37089SOL     OW13273   5.819   0.479   6.174
37089SOL    HW113274   5.836   0.490   6.267
37089SOL    HW213275   5.842   0.563   6.135
37090SOL     OW13276  10.640   0.652   5.536
37090SOL    HW113277  10.705   0.632   5.604
37090SOL    HW213278  10.685   0.632   5.453
37091SOL     OW13279  10.270   6.770   8.039
37091SOL    HW113280  10.331   6.843   8.031
37091SOL    HW213281  10.300   6.706   7.973
37092SOL     OW13282  10.703  10.992   6.612
37092SOL    HW113283  10.768  10.940   6.659
37092SOL    HW213284  10.630  11.000   6.673
37093SOL     OW13285   6.301   4.025   7.700
37093SOL    HW113286   6.315   3.930   7.702
37093SOL    HW213287   6.389   4.062   7.696
37094SOL     OW13288   1.619   1.481   5.068
37094SOL    HW113289   1.706   1.441   5.072
37094SOL    HW213290   1.574   1.449   5.146
37095SOL     OW13291  10.253   8.282   4.668
37095SOL    HW113292  10.269   8.189   4.651
37095SOL    HW213293  10.336   8.314   4.703
37096SOL     OW13294   5.474  10.644   5.133
37096SOL    HW113295   5.381  10.650   5.112
37096SOL    HW213296   5.513  10.721   5.092
37097SOL     OW13297   9.071   3.645   3.078
37097SOL    HW113298   9.159   3.608   3.066
37097SOL    HW213299   9.085   3.739   3.078
37098SOL     OW13300   4.650   2.854   3.543
37098SOL    HW113301   4.715   2.881   3.478
37098SOL    HW213302   4.593   2.793   3.496
37099SOL     OW13303   9.477   4.145   1.761
37099SOL    HW113304   9.564   4.164   1.725
37099SOL    HW213305   9.461   4.216   1.823
37100SOL     OW13306   2.313   7.734   7.865
37100SOL    HW113307   2.287   7.647   7.896
37100SOL    HW213308   2.369   7.769   7.934
37101SOL     OW13309   9.435   5.823   9.798
37101SOL    HW113310   9.508   5.762   9.789
37101SOL    HW213311   9.395   5.801   9.882
37102SOL     OW13312   7.989   0.481   1.885
37102SOL    HW113313   8.082   0.496   1.867
37102SOL    HW213314   7.962   0.421   1.815
37103SOL     OW13315   8.382   8.284  10.528
37103SOL    HW113316   8.467   8.246  10.552
37103SOL    HW213317   8.318   8.221  10.561
37104SOL     OW13318   8.430   3.755   8.013
37104SOL    HW113319   8.389   3.724   8.093
37104SOL    HW213320   8.510   3.798   8.042
37105SOL     OW13321   1.129   4.594   7.373
37105SOL    HW113322   1.093   4.575   7.459
37105SOL    HW213323   1.157   4.685   7.378
37106SOL     OW13324   6.984   0.832   7.832
37106SOL    HW113325   6.944   0.799   7.751
37106SOL    HW213326   6.912   0.871   7.881
37107SOL     OW13327  10.279   1.849   7.595
37107SOL    HW113328  10.310   1.927   7.640
37107SOL    HW213329  10.304   1.776   7.652
37108SOL     OW13330   7.685   1.636   1.118
37108SOL    HW113331   7.628   1.703   1.155
37108SOL    HW213332   7.773   1.672   1.126
37109SOL     OW13333   7.969  10.892   1.049
37109SOL    HW113334   7.968  10.796   1.044
37109SOL    HW213335   7.896  10.914   1.107
37110SOL     OW13336   8.282   0.448   6.813
37110SOL    HW113337   8.356   0.408   6.767
37110SOL    HW213338   8.288   0.414   6.902
37111SOL     OW13339   5.920  10.613   6.041
37111SOL    HW113340   6.015  10.600   6.049
37111SOL    HW213341   5.901  10.591   5.950
37112SOL     OW13342   2.660   8.099   1.178
37112SOL    HW113343   2.710   8.052   1.245
37112SOL    HW213344   2.726   8.146   1.127
37113SOL     OW13345   0.083   2.755   8.531
37113SOL    HW113346   0.136   2.727   8.456
37113SOL    HW213347   0.146   2.766   8.602
37114SOL     OW13348   0.773   0.404   3.939
37114SOL    HW113349   0.775   0.497   3.960
37114SOL    HW213350   0.861   0.372   3.961
37115SOL     OW13351   1.522   1.929   4.103
37115SOL    HW113352   1.453   1.863   4.109
37115SOL    HW213353   1.531   1.963   4.192
37116SOL     OW13354   8.531   2.850   8.864
37116SOL    HW113355   8.600   2.860   8.798
37116SOL    HW213356   8.455   2.894   8.826
37117SOL     OW13357   0.709   8.621   4.207
37117SOL    HW113358   0.669   8.682   4.145
37117SOL    HW213359   0.752   8.676   4.272
37118SOL     OW13360  10.500  10.380   0.125
37118SOL    HW113361  10.506  10.372   0.030
37118SOL    HW213362  10.422  10.330   0.148
37119SOL     OW13363   5.000   2.289   6.473
37119SOL    HW113364   5.012   2.354   6.542
37119SOL    HW213365   5.085   2.245   6.466
37120SOL     OW13366   8.032   8.670   8.812
37120SOL    HW113367   8.087   8.604   8.768
37120SOL    HW213368   7.958   8.620   8.847
37121SOL     OW13369  10.862   0.336   9.144
37121SOL    HW113370  10.876   0.429   9.158
37121SOL    HW213371  10.920   0.313   9.071
37122SOL     OW13372   6.852   3.532   1.214
37122SOL    HW113373   6.794   3.510   1.286
37122SOL    HW213374   6.818   3.482   1.139
37123SOL     OW13375   9.025   0.625   8.391
37123SOL    HW113376   9.008   0.553   8.329
37123SOL    HW213377   9.028   0.582   8.476
37124SOL     OW13378   6.474   9.546   6.907
37124SOL    HW113379   6.461   9.480   6.975
37124SOL    HW213380   6.424   9.513   6.832
37125SOL     OW13381   9.127   9.881   8.135
37125SOL    HW113382   9.043   9.875   8.181
37125SOL    HW213383   9.140   9.974   8.120
37126SOL     OW13384   0.185   7.650  10.826
37126SOL    HW113385   0.094   7.679  10.827
37126SOL    HW213386   0.182   7.562  10.789
37127SOL     OW13387   8.902   4.567   2.146
37127SOL    HW113388   8.812   4.552   2.119
37127SOL    HW213389   8.913   4.662   2.143
37128SOL     OW13390   5.930   1.495   7.885
37128SOL    HW113391   5.868   1.549   7.933
37128SOL    HW213392   6.012   1.502   7.934
37129SOL     OW13393   9.933   0.138   3.269
37129SOL    HW113394   9.853   0.188   3.253
37129SOL    HW213395  10.002   0.204   3.272
37130SOL     OW13396   0.357   8.434  10.241
37130SOL    HW113397   0.288   8.500  10.243
37130SOL    HW213398   0.335   8.378  10.166
37131SOL     OW13399   0.662   2.070   3.387
37131SOL    HW113400   0.704   2.148   3.352
37131SOL    HW213401   0.586   2.102   3.435
37132SOL     OW13402   0.056   9.741   5.293
37132SOL    HW113403   0.082   9.665   5.241
37132SOL    HW213404   0.129   9.756   5.352
37133SOL     OW13405   9.722   0.956   8.474
37133SOL    HW113406   9.718   0.873   8.521
37133SOL    HW213407   9.656   0.947   8.405
37134SOL     OW13408   4.599   6.217   5.468
37134SOL    HW113409   4.516   6.227   5.421
37134SOL    HW213410   4.574   6.188   5.555
37135SOL     OW13411   2.901   5.707   6.448
37135SOL    HW113412   2.978   5.756   6.420
37135SOL    HW213413   2.836   5.774   6.470
37136SOL     OW13414   3.691   1.469   1.848
37136SOL    HW113415   3.757   1.430   1.905
37136SOL    HW213416   3.656   1.395   1.798
37137SOL     OW13417   4.359  10.091   9.383
37137SOL    HW113418   4.334  10.081   9.475
37137SOL    HW213419   4.300  10.158   9.348
37138SOL     OW13420   8.654  10.789   4.065
37138SOL    HW113421   8.621  10.773   4.153
37138SOL    HW213422   8.747  10.806   4.077
37139SOL     OW13423   9.935   9.031   7.303
37139SOL    HW113424   9.890   8.964   7.251
37139SOL    HW213425   9.891   9.029   7.388
37140SOL     OW13426   8.166   2.505  10.751
37140SOL    HW113427   8.163   2.410  10.762
37140SOL    HW213428   8.171   2.539  10.840
37141SOL     OW13429   9.410   0.824   4.038
37141SOL    HW113430   9.316   0.807   4.029
37141SOL    HW213431   9.425   0.904   3.988
37142SOL     OW13432   4.961   2.287   4.221
37142SOL    HW113433   5.013   2.318   4.295
37142SOL    HW213434   4.999   2.331   4.144
37143SOL     OW13435   7.297   7.961   9.558
37143SOL    HW113436   7.351   7.995   9.629
37143SOL    HW213437   7.360   7.934   9.491
37144SOL     OW13438   3.311   0.635   1.611
37144SOL    HW113439   3.218   0.656   1.610
37144SOL    HW213440   3.324   0.579   1.534
37145SOL     OW13441   4.125   3.393   6.110
37145SOL    HW113442   4.076   3.391   6.192
37145SOL    HW213443   4.137   3.486   6.091
37146SOL     OW13444   9.672   5.950   7.800
37146SOL    HW113445   9.705   5.880   7.743
37146SOL    HW213446   9.750   6.000   7.823
37147SOL     OW13447   1.086   0.925   2.605
37147SOL    HW113448   1.014   0.863   2.591
37147SOL    HW213449   1.043   1.006   2.632
37148SOL     OW13450   7.891   8.304   6.673
37148SOL    HW113451   7.870   8.210   6.668
37148SOL    HW213452   7.913   8.318   6.765
37149SOL     OW13453   2.543   0.680   8.596
37149SOL    HW113454   2.476   0.736   8.557
37149SOL    HW213455   2.581   0.633   8.521
37150SOL     OW13456   3.761  10.549  10.609
37150SOL    HW113457   3.770  10.605  10.532
37150SOL    HW213458   3.829  10.483  10.598
37151SOL     OW13459  10.259  10.295  10.233
37151SOL    HW113460  10.244  10.258  10.146
37151SOL    HW213461  10.172  10.315  10.266
37152SOL     OW13462   9.801   0.864   7.850
37152SOL    HW113463   9.794   0.778   7.892
37152SOL    HW213464   9.713   0.901   7.856
37153SOL     OW13465   9.123   8.615   7.685
37153SOL    HW113466   9.156   8.563   7.611
37153SOL    HW213467   9.181   8.691   7.688
37154SOL     OW13468  10.432  10.130   3.392
37154SOL    HW113469  10.431  10.044   3.349
37154SOL    HW213470  10.471  10.189   3.327
37155SOL     OW13471   7.133   1.254   4.893
37155SOL    HW113472   7.227   1.248   4.873
37155SOL    HW213473   7.095   1.297   4.816
37156SOL     OW13474   2.017   1.048   4.938
37156SOL    HW113475   1.964   1.095   4.874
37156SOL    HW213476   2.063   0.981   4.886
37157SOL     OW13477   9.754   7.900   7.693
37157SOL    HW113478   9.745   7.809   7.723
37157SOL    HW213479   9.743   7.895   7.598
37158SOL     OW13480   9.928   0.642  10.905
37158SOL    HW113481   9.953   0.590  10.981
37158SOL    HW213482   9.953   0.588  10.830
37159SOL     OW13483   0.593   2.995  10.158
37159SOL    HW113484   0.570   2.907  10.188
37159SOL    HW213485   0.569   3.052  10.231
37160SOL     OW13486   3.038   9.693   7.282
37160SOL    HW113487   3.065   9.640   7.357
37160SOL    HW213488   3.032   9.630   7.209
37161SOL     OW13489   2.738   4.641   8.440
37161SOL    HW113490   2.689   4.560   8.426
37161SOL    HW213491   2.687   4.689   8.504
37162SOL     OW13492  10.152   1.107   6.028
37162SOL    HW113493  10.106   1.149   6.100
37162SOL    HW213494  10.216   1.050   6.071
37163SOL     OW13495   8.073   7.107   1.222
37163SOL    HW113496   8.126   7.162   1.164
37163SOL    HW213497   8.129   7.089   1.297
37164SOL     OW13498   8.003   2.935   6.115
37164SOL    HW113499   8.014   3.026   6.141
37164SOL    HW213500   7.908   2.923   6.109
37165SOL     OW13501   3.873   1.892   3.320
37165SOL    HW113502   3.818   1.927   3.389
37165SOL    HW213503   3.950   1.949   3.318
37166SOL     OW13504   0.535   7.083   0.820
37166SOL    HW113505   0.575   7.073   0.906
37166SOL    HW213506   0.458   7.137   0.835
37167SOL     OW13507   5.478   2.688   2.570
37167SOL    HW113508   5.417   2.652   2.634
37167SOL    HW213509   5.424   2.741   2.512
37168SOL     OW13510   2.433   3.388   0.141
37168SOL    HW113511   2.359   3.382   0.081
37168SOL    HW213512   2.450   3.481   0.150
37169SOL     OW13513   7.895   2.189   6.143
37169SOL    HW113514   7.979   2.231   6.163
37169SOL    HW213515   7.918   2.098   6.124
37170SOL     OW13516   4.768   1.878   0.853
37170SOL    HW113517   4.759   1.893   0.759
37170SOL    HW213518   4.845   1.929   0.878
37171SOL     OW13519   1.804   9.018   7.026
37171SOL    HW113520   1.859   9.029   6.948
37171SOL    HW213521   1.863   9.034   7.100
37172SOL     OW13522   0.281   0.468   4.043
37172SOL    HW113523   0.285   0.555   4.081
37172SOL    HW213524   0.231   0.416   4.106
37173SOL     OW13525   5.093   7.589   7.631
37173SOL    HW113526   5.082   7.659   7.567
37173SOL    HW213527   5.083   7.632   7.716
37174SOL     OW13528   1.283   4.950   6.607
37174SOL    HW113529   1.283   4.854   6.599
37174SOL    HW213530   1.372   4.971   6.636
37175SOL     OW13531   1.204  10.403   6.134
37175SOL    HW113532   1.186  10.409   6.227
37175SOL    HW213533   1.192  10.492   6.101
37176SOL     OW13534  10.295   4.802   9.327
37176SOL    HW113535  10.259   4.724   9.284
37176SOL    HW213536  10.250   4.806   9.411
37177SOL     OW13537   1.858   2.700   4.524
37177SOL    HW113538   1.921   2.651   4.470
37177SOL    HW213539   1.881   2.677   4.614
37178SOL     OW13540   0.467   8.632   8.843
37178SOL    HW113541   0.408   8.560   8.865
37178SOL    HW213542   0.455   8.695   8.913
37179SOL     OW13543   1.349   9.331  10.317
37179SOL    HW113544   1.267   9.368  10.285
37179SOL    HW213545   1.337   9.236  10.310
37180SOL     OW13546   9.044   9.513   7.780
37180SOL    HW113547   9.035   9.594   7.830
37180SOL    HW213548   9.138   9.502   7.768
37181SOL     OW13549   1.036   0.779  10.590
37181SOL    HW113550   1.046   0.866  10.629
37181SOL    HW213551   1.069   0.719  10.657
37182SOL     OW13552   9.726   9.772   7.174
37182SOL    HW113553   9.739   9.867   7.174
37182SOL    HW213554   9.699   9.752   7.084
37183SOL     OW13555   5.866   4.328   2.472
37183SOL    HW113556   5.809   4.368   2.537
37183SOL    HW213557   5.950   4.316   2.517
37184SOL     OW13558   9.790   4.575   6.953
37184SOL    HW113559   9.875   4.547   6.918
37184SOL    HW213560   9.755   4.635   6.887
37185SOL     OW13561   0.177   8.132   8.438
37185SOL    HW113562   0.104   8.146   8.377
37185SOL    HW213563   0.253   8.170   8.394
37186SOL     OW13564   0.611  10.973   2.076
37186SOL    HW113565   0.586  10.945   1.988
37186SOL    HW213566   0.584  10.901   2.133
37187SOL     OW13567   0.446   4.036   0.829
37187SOL    HW113568   0.378   4.049   0.895
37187SOL    HW213569   0.525   4.074   0.868
37188SOL     OW13570   6.067   8.765   4.636
37188SOL    HW113571   6.021   8.849   4.633
37188SOL    HW213572   6.044   8.728   4.721
37189SOL     OW13573   7.988   1.299   1.436
37189SOL    HW113574   7.912   1.263   1.481
37189SOL    HW213575   8.024   1.363   1.497
37190SOL     OW13576   1.106   7.378   6.400
37190SOL    HW113577   1.105   7.465   6.438
37190SOL    HW213578   1.075   7.321   6.470
37191SOL     OW13579  10.692   0.903  10.020
37191SOL    HW113580  10.756   0.964   9.983
37191SOL    HW213581  10.701   0.824   9.967
37192SOL     OW13582   7.031   8.239   1.747
37192SOL    HW113583   7.101   8.233   1.812
37192SOL    HW213584   6.978   8.313   1.775
37193SOL     OW13585   5.623   1.659   7.605
37193SOL    HW113586   5.645   1.580   7.555
37193SOL    HW213587   5.584   1.717   7.540
37194SOL     OW13588   5.351  10.879   9.013
37194SOL    HW113589   5.374  10.872   8.920
37194SOL    HW213590   5.259  10.904   9.013
37195SOL     OW13591   4.934   7.403   2.327
37195SOL    HW113592   4.869   7.425   2.260
37195SOL    HW213593   5.010   7.457   2.305
37196SOL     OW13594   6.546   6.673  10.060
37196SOL    HW113595   6.618   6.642  10.005
37196SOL    HW213596   6.471   6.619  10.034
37197SOL     OW13597   7.606   6.556   3.494
37197SOL    HW113598   7.524   6.592   3.527
37197SOL    HW213599   7.605   6.575   3.400
37198SOL     OW13600   8.070   3.008   8.747
37198SOL    HW113601   8.061   2.984   8.839
37198SOL    HW213602   8.024   3.091   8.739
37199SOL     OW13603   9.963   0.172   7.085
37199SOL    HW113604   9.992   0.240   7.024
37199SOL    HW213605   9.987   0.205   7.171
37200SOL     OW13606   7.452   7.628  10.251
37200SOL    HW113607   7.545   7.620  10.270
37200SOL    HW213608   7.443   7.595  10.161
37201SOL     OW13609   6.224   5.082   8.648
37201SOL    HW113610   6.169   5.071   8.725
37201SOL    HW213611   6.162   5.092   8.576
37202SOL     OW13612   1.095   0.714   5.530
37202SOL    HW113613   1.118   0.807   5.530
37202SOL    HW213614   1.002   0.712   5.550
37203SOL     OW13615   7.963   2.295   3.755
37203SOL    HW113616   7.984   2.294   3.848
37203SOL    HW213617   7.922   2.210   3.739
37204SOL     OW13618   1.639   2.321   9.578
37204SOL    HW113619   1.729   2.288   9.584
37204SOL    HW213620   1.588   2.246   9.548
37205SOL     OW13621   1.207   6.968   1.123
37205SOL    HW113622   1.290   6.922   1.107
37205SOL    HW213623   1.173   6.986   1.035
37206SOL     OW13624   9.126   5.078   5.311
37206SOL    HW113625   9.079   4.999   5.337
37206SOL    HW213626   9.123   5.134   5.388
37207SOL     OW13627   0.584  10.851  10.402
37207SOL    HW113628   0.536  10.875  10.481
37207SOL    HW213629   0.555  10.914  10.336
37208SOL     OW13630   9.237   5.036   3.916
37208SOL    HW113631   9.258   4.995   3.832
37208SOL    HW213632   9.142   5.046   3.915
37209SOL     OW13633   1.549   8.787   0.907
37209SOL    HW113634   1.480   8.754   0.849
37209SOL    HW213635   1.606   8.838   0.849
37210SOL     OW13636   2.237   1.076   4.151
37210SOL    HW113637   2.246   0.995   4.202
37210SOL    HW213638   2.225   1.046   4.061
37211SOL     OW13639   1.580   3.968   7.583
37211SOL    HW113640   1.508   3.942   7.525
37211SOL    HW213641   1.659   3.959   7.529
37212SOL     OW13642   8.285   3.416   8.886
37212SOL    HW113643   8.358   3.462   8.927
37212SOL    HW213644   8.210   3.436   8.941
37213SOL     OW13645   8.922   2.109   9.243
37213SOL    HW113646   8.966   2.170   9.184
37213SOL    HW213647   8.907   2.031   9.189
37214SOL     OW13648   9.640   9.015  10.673
37214SOL    HW113649   9.620   8.987  10.762
37214SOL    HW213650   9.730   9.048  10.677
37215SOL     OW13651   3.583  10.580   8.630
37215SOL    HW113652   3.530  10.656   8.605
37215SOL    HW213653   3.673  10.609   8.617
37216SOL     OW13654   7.989   0.046   1.652
37216SOL    HW113655   8.076   0.011   1.631
37216SOL    HW213656   7.934  -0.032   1.664
37217SOL     OW13657  10.398   2.753   9.837
37217SOL    HW113658  10.402   2.771   9.743
37217SOL    HW213659  10.481   2.708   9.857
37218SOL     OW13660   1.884   5.578  10.739
37218SOL    HW113661   1.898   5.524  10.817
37218SOL    HW213662   1.790   5.598  10.740
37219SOL     OW13663   3.258   4.338   7.869
37219SOL    HW113664   3.343   4.366   7.834
37219SOL    HW213665   3.206   4.418   7.874
37220SOL     OW13666   8.754   4.516   0.048
37220SOL    HW113667   8.799   4.431   0.050
37220SOL    HW213668   8.750   4.539  -0.044
37221SOL     OW13669   3.589   3.710  10.901
37221SOL    HW113670   3.536   3.751  10.969
37221SOL    HW213671   3.642   3.645  10.947
37222SOL     OW13672   7.247   9.660   0.765
37222SOL    HW113673   7.203   9.743   0.747
37222SOL    HW213674   7.290   9.637   0.682
37223SOL     OW13675   9.419   7.086  11.060
37223SOL    HW113676   9.453   7.161  11.108
37223SOL    HW213677   9.431   7.109  10.967
37224SOL     OW13678   1.259  10.255   3.817
37224SOL    HW113679   1.292  10.311   3.747
37224SOL    HW213680   1.289  10.297   3.897
37225SOL     OW13681   1.678   1.407  10.483
37225SOL    HW113682   1.678   1.469  10.556
37225SOL    HW213683   1.603   1.433  10.429
37226SOL     OW13684   3.952  10.969   5.491
37226SOL    HW113685   3.895  10.920   5.550
37226SOL    HW213686   3.933  10.934   5.404
37227SOL     OW13687   4.976   1.965   5.318
37227SOL    HW113688   4.966   2.054   5.284
37227SOL    HW213689   4.890   1.944   5.355
37228SOL     OW13690   1.147   0.180   4.735
37228SOL    HW113691   1.088   0.246   4.700
37228SOL    HW213692   1.224   0.229   4.764
37229SOL     OW13693   8.482   7.922   4.219
37229SOL    HW113694   8.529   7.844   4.189
37229SOL    HW213695   8.546   7.993   4.211
37230SOL     OW13696   8.736   6.132   1.525
37230SOL    HW113697   8.784   6.209   1.496
37230SOL    HW213698   8.721   6.081   1.445
37231SOL     OW13699   0.280   0.856   9.898
37231SOL    HW113700   0.347   0.790   9.915
37231SOL    HW213701   0.208   0.832   9.956
37232SOL     OW13702   3.832   2.465   5.940
37232SOL    HW113703   3.826   2.447   6.034
37232SOL    HW213704   3.773   2.538   5.925
37233SOL     OW13705   4.691   2.008   3.391
37233SOL    HW113706   4.635   2.063   3.336
37233SOL    HW213707   4.658   2.020   3.480
37234SOL     OW13708   8.334   9.214   7.864
37234SOL    HW113709   8.407   9.198   7.803
37234SOL    HW213710   8.303   9.126   7.887
37235SOL     OW13711   1.916   2.143  10.498
37235SOL    HW113712   1.891   2.229  10.464
37235SOL    HW213713   1.958   2.100  10.423
37236SOL     OW13714   3.737   4.660   3.931
37236SOL    HW113715   3.675   4.592   3.958
37236SOL    HW213716   3.696   4.742   3.957
37237SOL     OW13717   7.310   1.116   9.075
37237SOL    HW113718   7.289   1.159   8.992
37237SOL    HW213719   7.402   1.137   9.090
37238SOL     OW13720   8.276   8.915   7.433
37238SOL    HW113721   8.278   9.010   7.432
37238SOL    HW213722   8.282   8.890   7.340
37239SOL     OW13723   8.965   9.423   0.259
37239SOL    HW113724   8.876   9.418   0.224
37239SOL    HW213725   8.988   9.515   0.254
37240SOL     OW13726   9.684   7.633   9.559
37240SOL    HW113727   9.725   7.662   9.640
37240SOL    HW213728   9.733   7.554   9.535
37241SOL     OW13729   6.460   1.376   9.388
37241SOL    HW113730   6.433   1.430   9.314
37241SOL    HW213731   6.383   1.323   9.409
37242SOL     OW13732   3.397   1.163   7.497
37242SOL    HW113733   3.491   1.177   7.489
37242SOL    HW213734   3.364   1.242   7.539
37243SOL     OW13735  10.570   1.425   8.535
37243SOL    HW113736  10.648   1.369   8.542
37243SOL    HW213737  10.518   1.384   8.465
37244SOL     OW13738   1.754   0.098   1.548
37244SOL    HW113739   1.695   0.145   1.489
37244SOL    HW213740   1.746   0.006   1.522
37245SOL     OW13741   8.315  10.578   9.000
37245SOL    HW113742   8.331  10.575   8.905
37245SOL    HW213743   8.292  10.669   9.017
37246SOL     OW13744   7.303   6.952   5.808
37246SOL    HW113745   7.311   6.873   5.861
37246SOL    HW213746   7.330   6.924   5.720
37247SOL     OW13747   0.566  11.062   5.717
37247SOL    HW113748   0.564  11.048   5.622
37247SOL    HW213749   0.534  10.980   5.754
37248SOL     OW13750   4.081   4.597   9.606
37248SOL    HW113751   4.094   4.572   9.514
37248SOL    HW213752   3.987   4.586   9.621
37249SOL     OW13753  10.995   6.480   6.899
37249SOL    HW113754  11.007   6.483   6.804
37249SOL    HW213755  10.964   6.567   6.922
37250SOL     OW13756   0.553   4.056   6.557
37250SOL    HW113757   0.549   4.072   6.462
37250SOL    HW213758   0.598   4.132   6.593
37251SOL     OW13759   5.053  10.972   2.716
37251SOL    HW113760   5.023  10.890   2.677
37251SOL    HW213761   5.034  11.038   2.649
37252SOL     OW13762   6.852   8.505   7.505
37252SOL    HW113763   6.832   8.547   7.588
37252SOL    HW213764   6.862   8.412   7.527
37253SOL     OW13765   3.578   7.876   4.531
37253SOL    HW113766   3.569   7.805   4.594
37253SOL    HW213767   3.586   7.955   4.584
37254SOL     OW13768   0.181   3.476  10.076
37254SOL    HW113769   0.147   3.553  10.030
37254SOL    HW213770   0.104   3.439  10.120
37255SOL     OW13771   5.852   4.537   9.882
37255SOL    HW113772   5.861   4.442   9.889
37255SOL    HW213773   5.904   4.571   9.954
37256SOL     OW13774  10.184   9.778   9.212
37256SOL    HW113775  10.237   9.839   9.264
37256SOL    HW213776  10.242   9.751   9.140
37257SOL     OW13777   0.269   9.051   2.306
37257SOL    HW113778   0.214   8.977   2.331
37257SOL    HW213779   0.304   9.084   2.388
37258SOL     OW13780   9.223   4.732   9.906
37258SOL    HW113781   9.215   4.648   9.951
37258SOL    HW213782   9.273   4.711   9.826
37259SOL     OW13783   1.156   6.914   0.261
37259SOL    HW113784   1.078   6.969   0.268
37259SOL    HW213785   1.218   6.966   0.211
37260SOL     OW13786   6.356  10.599   4.268
37260SOL    HW113787   6.344  10.618   4.175
37260SOL    HW213788   6.373  10.684   4.308
37261SOL     OW13789   7.249   1.778   8.156
37261SOL    HW113790   7.295   1.857   8.184
37261SOL    HW213791   7.296   1.750   8.077
37262SOL     OW13792  10.857   3.515   1.820
37262SOL    HW113793  10.856   3.467   1.903
37262SOL    HW213794  10.765   3.532   1.801
37263SOL     OW13795   7.507  10.073   7.690
37263SOL    HW113796   7.464  10.148   7.731
37263SOL    HW213797   7.440  10.035   7.633
37264SOL     OW13798   9.033   7.889   8.244
37264SOL    HW113799   9.034   7.889   8.148
37264SOL    HW213800   9.125   7.889   8.269
37265SOL     OW13801   6.906   0.930   8.087
37265SOL    HW113802   6.942   0.941   8.175
37265SOL    HW213803   6.853   0.850   8.092
37266SOL     OW13804   7.313   1.496   1.868
37266SOL    HW113805   7.249   1.496   1.797
37266SOL    HW213806   7.364   1.416   1.854
37267SOL     OW13807   6.700   8.086   8.744
37267SOL    HW113808   6.747   8.127   8.671
37267SOL    HW213809   6.717   8.143   8.819
37268SOL     OW13810   7.613  10.774   4.149
37268SOL    HW113811   7.572  10.849   4.191
37268SOL    HW213812   7.578  10.775   4.060
37269SOL     OW13813   8.388   9.543   9.847
37269SOL    HW113814   8.387   9.558   9.752
37269SOL    HW213815   8.396   9.630   9.885
37270SOL     OW13816   2.142   3.010  10.720
37270SOL    HW113817   2.067   3.069  10.715
37270SOL    HW213818   2.190   3.037  10.798
37271SOL     OW13819   0.910   6.945   5.631
37271SOL    HW113820   0.831   6.945   5.685
37271SOL    HW213821   0.954   7.027   5.651
37272SOL     OW13822   4.236   1.680   6.718
37272SOL    HW113823   4.318   1.659   6.763
37272SOL    HW213824   4.264   1.709   6.631
37273SOL     OW13825   3.242   6.536   0.003
37273SOL    HW113826   3.311   6.527   0.069
37273SOL    HW213827   3.188   6.458   0.014
37274SOL     OW13828   3.670   1.100   8.478
37274SOL    HW113829   3.689   1.077   8.387
37274SOL    HW213830   3.627   1.022   8.514
37275SOL     OW13831   2.470   0.044   3.396
37275SOL    HW113832   2.521   0.038   3.476
37275SOL    HW213833   2.518  -0.010   3.333
37276SOL     OW13834   9.713   1.025   9.370
37276SOL    HW113835   9.699   1.020   9.275
37276SOL    HW213836   9.714   0.933   9.398
37277SOL     OW13837   0.308   9.922   5.912
37277SOL    HW113838   0.347  10.004   5.942
37277SOL    HW213839   0.364   9.854   5.949
37278SOL     OW13840   9.415  11.031   8.841
37278SOL    HW113841   9.351  10.978   8.889
37278SOL    HW213842   9.413  10.996   8.752
37279SOL     OW13843   6.654   0.678   4.467
37279SOL    HW113844   6.740   0.693   4.507
37279SOL    HW213845   6.594   0.668   4.540
37280SOL     OW13846  10.821  10.816   5.751
37280SOL    HW113847  10.820  10.861   5.666
37280SOL    HW213848  10.894  10.856   5.798
37281SOL     OW13849   1.554   0.646   1.422
37281SOL    HW113850   1.587   0.583   1.357
37281SOL    HW213851   1.525   0.591   1.495
37282SOL     OW13852  10.761   5.884   3.856
37282SOL    HW113853  10.670   5.889   3.825
37282SOL    HW213854  10.755   5.885   3.951
37283SOL     OW13855   5.618   3.044   4.265
37283SOL    HW113856   5.551   3.094   4.312
37283SOL    HW213857   5.698   3.095   4.275
37284SOL     OW13858   1.420   9.187   1.798
37284SOL    HW113859   1.404   9.104   1.843
37284SOL    HW213860   1.384   9.174   1.710
37285SOL     OW13861   0.333   1.787   8.701
37285SOL    HW113862   0.379   1.788   8.617
37285SOL    HW213863   0.358   1.704   8.741
37286SOL     OW13864   3.398   8.891   9.842
37286SOL    HW113865   3.493   8.903   9.833
37286SOL    HW213866   3.386   8.862   9.932
37287SOL     OW13867   0.332   6.434   6.500
37287SOL    HW113868   0.366   6.508   6.550
37287SOL    HW213869   0.365   6.356   6.545
37288SOL     OW13870   6.052   3.344   0.279
37288SOL    HW113871   6.124   3.406   0.289
37288SOL    HW213872   6.016   3.333   0.367
37289SOL     OW13873   9.879   7.513   8.058
37289SOL    HW113874   9.967   7.546   8.039
37289SOL    HW213875   9.884   7.419   8.037
37290SOL     OW13876   1.865   7.343   8.260
37290SOL    HW113877   1.918   7.399   8.316
37290SOL    HW213878   1.803   7.301   8.319
37291SOL     OW13879   7.104   0.637   9.570
37291SOL    HW113880   7.035   0.650   9.634
37291SOL    HW213881   7.059   0.635   9.485
37292SOL     OW13882   0.673   4.089   3.161
37292SOL    HW113883   0.716   4.161   3.115
37292SOL    HW213884   0.583   4.118   3.173
37293SOL     OW13885   0.580   3.975   9.276
37293SOL    HW113886   0.547   4.043   9.217
37293SOL    HW213887   0.634   3.919   9.220
37294SOL     OW13888   4.443   3.037   1.919
37294SOL    HW113889   4.374   2.972   1.907
37294SOL    HW213890   4.524   2.986   1.916
37295SOL     OW13891   1.659   3.415   4.194
37295SOL    HW113892   1.640   3.331   4.151
37295SOL    HW213893   1.574   3.447   4.223
37296SOL     OW13894   0.010   3.119   1.212
37296SOL    HW113895   0.104   3.132   1.206
37296SOL    HW213896  -0.001   3.024   1.225
37297SOL     OW13897   6.941   0.816   3.550
37297SOL    HW113898   6.979   0.799   3.636
37297SOL    HW213899   7.014   0.803   3.489
37298SOL     OW13900   2.137   5.949  10.532
37298SOL    HW113901   2.086   5.937  10.452
37298SOL    HW213902   2.095   5.892  10.596
37299SOL     OW13903   8.670   0.240   0.099
37299SOL    HW113904   8.594   0.223   0.155
37299SOL    HW213905   8.646   0.317   0.048
37300SOL     OW13906   8.186   2.230  10.732
37300SOL    HW113907   8.177   2.135  10.746
37300SOL    HW213908   8.142   2.246  10.648
37301SOL     OW13909   6.819   0.268   1.530
37301SOL    HW113910   6.836   0.328   1.602
37301SOL    HW213911   6.813   0.324   1.452
37302SOL     OW13912   0.176   2.191   5.171
37302SOL    HW113913   0.114   2.145   5.114
37302SOL    HW213914   0.239   2.231   5.111
37303SOL     OW13915  10.986   9.298  10.725
37303SOL    HW113916  11.007   9.371  10.782
37303SOL    HW213917  10.956   9.338  10.643
37304SOL     OW13918   7.739   4.135   6.366
37304SOL    HW113919   7.747   4.182   6.283
37304SOL    HW213920   7.830   4.121   6.394
37305SOL     OW13921   2.013   1.441   6.111
37305SOL    HW113922   2.074   1.506   6.077
37305SOL    HW213923   1.929   1.486   6.114
37306SOL     OW13924   6.169   0.960  10.869
37306SOL    HW113925   6.157   1.012  10.948
37306SOL    HW213926   6.083   0.961  10.826
37307SOL     OW13927   8.693   7.328   0.889
37307SOL    HW113928   8.620   7.374   0.848
37307SOL    HW213929   8.704   7.370   0.974
37308SOL     OW13930   6.997   4.706   6.972
37308SOL    HW113931   7.074   4.733   7.022
37308SOL    HW213932   6.923   4.725   7.030
37309SOL     OW13933   3.208   8.858   1.994
37309SOL    HW113934   3.148   8.917   1.949
37309SOL    HW213935   3.295   8.890   1.971
37310SOL     OW13936   6.499   3.200   2.129
37310SOL    HW113937   6.535   3.262   2.065
37310SOL    HW213938   6.551   3.214   2.208
37311SOL     OW13939   6.581   1.464   7.790
37311SOL    HW113940   6.634   1.505   7.858
37311SOL    HW213941   6.506   1.427   7.836
37312SOL     OW13942   5.481   0.382   4.782
37312SOL    HW113943   5.502   0.363   4.873
37312SOL    HW213944   5.482   0.477   4.776
37313SOL     OW13945   1.153   1.671   6.541
37313SOL    HW113946   1.058   1.675   6.532
37313SOL    HW213947   1.183   1.627   6.461
37314SOL     OW13948  10.670   7.382   6.340
37314SOL    HW113949  10.663   7.468   6.381
37314SOL    HW213950  10.667   7.320   6.413
37315SOL     OW13951   8.739  10.567   6.357
37315SOL    HW113952   8.710  10.509   6.286
37315SOL    HW213953   8.750  10.653   6.315
37316SOL     OW13954   5.818   4.797   0.948
37316SOL    HW113955   5.727   4.779   0.924
37316SOL    HW213956   5.858   4.830   0.867
37317SOL     OW13957   1.018   7.753   7.398
37317SOL    HW113958   1.097   7.716   7.437
37317SOL    HW213959   0.977   7.678   7.354
37318SOL     OW13960   5.938   7.152   2.955
37318SOL    HW113961   5.906   7.241   2.966
37318SOL    HW213962   5.860   7.100   2.936
37319SOL     OW13963   7.578  10.113  10.002
37319SOL    HW113964   7.517  10.134   9.931
37319SOL    HW213965   7.560  10.021  10.022
37320SOL     OW13966   0.379   7.774   2.197
37320SOL    HW113967   0.350   7.699   2.249
37320SOL    HW213968   0.301   7.800   2.147
37321SOL     OW13969   4.082   8.127   4.839
37321SOL    HW113970   4.063   8.039   4.872
37321SOL    HW213971   4.072   8.183   4.915
37322SOL     OW13972   4.885   6.181  10.617
37322SOL    HW113973   4.951   6.133  10.566
37322SOL    HW213974   4.821   6.210  10.551
37323SOL     OW13975   8.610   2.711  10.366
37323SOL    HW113976   8.653   2.707  10.451
37323SOL    HW213977   8.599   2.804  10.349
37324SOL     OW13978   6.397   0.721   0.177
37324SOL    HW113979   6.384   0.680   0.092
37324SOL    HW213980   6.492   0.715   0.192
37325SOL     OW13981   7.162   0.372   7.744
37325SOL    HW113982   7.228   0.331   7.687
37325SOL    HW213983   7.194   0.356   7.833
37326SOL     OW13984   1.469  10.397   2.220
37326SOL    HW113985   1.545  10.402   2.162
37326SOL    HW213986   1.486  10.321   2.275
37327SOL     OW13987   1.741   2.120   4.087
37327SOL    HW113988   1.686   2.178   4.035
37327SOL    HW213989   1.681   2.054   4.122
37328SOL     OW13990   7.245   2.521   4.750
37328SOL    HW113991   7.234   2.606   4.792
37328SOL    HW213992   7.265   2.542   4.659
37329SOL     OW13993  10.755   1.579   9.501
37329SOL    HW113994  10.664   1.585   9.529
37329SOL    HW213995  10.798   1.527   9.569
37330SOL     OW13996   8.988   1.103   8.383
37330SOL    HW113997   8.963   1.012   8.399
37330SOL    HW213998   9.044   1.098   8.305
37331SOL     OW13999   6.323   4.286   2.295
37331SOL    HW114000   6.245   4.340   2.285
37331SOL    HW214001   6.379   4.335   2.354
37332SOL     OW14002   0.566   2.375   2.348
37332SOL    HW114003   0.543   2.453   2.398
37332SOL    HW214004   0.514   2.305   2.387
37333SOL     OW14005   6.246   4.751   2.983
37333SOL    HW114006   6.308   4.736   2.911
37333SOL    HW214007   6.262   4.841   3.011
37334SOL     OW14008   6.242   9.806   7.043
37334SOL    HW114009   6.303   9.757   6.988
37334SOL    HW214010   6.162   9.810   6.991
37335SOL     OW14011   8.441   7.257   0.136
37335SOL    HW114012   8.447   7.169   0.099
37335SOL    HW214013   8.504   7.309   0.086
37336SOL     OW14014   5.747   3.813   9.091
37336SOL    HW114015   5.676   3.865   9.128
37336SOL    HW214016   5.800   3.876   9.042
37337SOL     OW14017   8.441   2.511   9.507
37337SOL    HW114018   8.391   2.456   9.567
37337SOL    HW214019   8.477   2.580   9.562
37338SOL     OW14020   3.259   9.581   2.942
37338SOL    HW114021   3.226   9.628   2.865
37338SOL    HW214022   3.207   9.614   3.015
37339SOL     OW14023   7.318   2.823   7.931
37339SOL    HW114024   7.318   2.917   7.949
37339SOL    HW214025   7.393   2.789   7.980
37340SOL     OW14026   0.292   3.129   1.559
37340SOL    HW114027   0.282   3.057   1.621
37340SOL    HW214028   0.385   3.149   1.560
37341SOL     OW14029   8.733   0.197   6.862
37341SOL    HW114030   8.719   0.269   6.800
37341SOL    HW214031   8.762   0.124   6.807
37342SOL     OW14032  11.060   5.450   4.950
37342SOL    HW114033  11.076   5.471   4.858
37342SOL    HW214034  11.070   5.533   4.996
37343SOL     OW14035   7.908   4.845   1.902
37343SOL    HW114036   7.885   4.932   1.871
37343SOL    HW214037   7.996   4.854   1.938
37344SOL     OW14038   2.509   0.538   2.646
37344SOL    HW114039   2.419   0.506   2.653
37344SOL    HW214040   2.502   0.632   2.662
37345SOL     OW14041   6.095   3.669   1.762
37345SOL    HW114042   6.093   3.728   1.687
37345SOL    HW214043   6.063   3.585   1.727
37346SOL     OW14044   2.868   9.568   0.224
37346SOL    HW114045   2.809   9.603   0.290
37346SOL    HW214046   2.950   9.553   0.270
37347SOL     OW14047   4.697   6.581  10.613
37347SOL    HW114048   4.665   6.613  10.528
37347SOL    HW214049   4.625   6.527  10.646
37348SOL     OW14050   0.707   2.656   9.369
37348SOL    HW114051   0.770   2.605   9.317
37348SOL    HW214052   0.687   2.600   9.444
37349SOL     OW14053   9.184   4.966   0.754
37349SOL    HW114054   9.201   4.872   0.758
37349SOL    HW214055   9.215   4.992   0.667
37350SOL     OW14056   9.518  10.458   0.261
37350SOL    HW114057   9.445  10.446   0.200
37350SOL    HW214058   9.518  10.378   0.313
37351SOL     OW14059   1.243   1.283   3.376
37351SOL    HW114060   1.282   1.262   3.291
37351SOL    HW214061   1.149   1.272   3.362
37352SOL     OW14062   4.724   9.888   3.978
37352SOL    HW114063   4.800   9.904   4.034
37352SOL    HW214064   4.760   9.886   3.889
37353SOL     OW14065   5.930   5.671  10.518
37353SOL    HW114066   5.989   5.615  10.568
37353SOL    HW214067   5.897   5.614  10.448
37354SOL     OW14068  10.439   7.110   8.699
37354SOL    HW114069  10.372   7.165   8.659
37354SOL    HW214070  10.473   7.162   8.772
37355SOL     OW14071   3.504   2.861   3.562
37355SOL    HW114072   3.443   2.810   3.509
37355SOL    HW214073   3.510   2.813   3.644
37356SOL     OW14074   1.237   7.594   7.938
37356SOL    HW114075   1.215   7.609   7.846
37356SOL    HW214076   1.180   7.653   7.986
37357SOL     OW14077   5.629   6.761  10.557
37357SOL    HW114078   5.725   6.762  10.552
37357SOL    HW214079   5.603   6.695  10.493
37358SOL     OW14080   9.577   9.115   7.947
37358SOL    HW114081   9.657   9.166   7.958
37358SOL    HW214082   9.599   9.029   7.983
37359SOL     OW14083   6.216   5.758   0.494
37359SOL    HW114084   6.247   5.813   0.422
37359SOL    HW214085   6.129   5.791   0.514
37360SOL     OW14086  10.581   7.179   8.158
37360SOL    HW114087  10.674   7.156   8.160
37360SOL    HW214088  10.539   7.116   8.217
37361SOL     OW14089  10.936   2.436   6.087
37361SOL    HW114090  10.937   2.439   6.182
37361SOL    HW214091  10.990   2.360   6.065
37362SOL     OW14092   4.362   1.687  11.011
37362SOL    HW114093   4.392   1.624  11.076
37362SOL    HW214094   4.407   1.768  11.033
37363SOL     OW14095  10.668   7.649   2.174
37363SOL    HW114096  10.695   7.582   2.237
37363SOL    HW214097  10.587   7.615   2.136
37364SOL     OW14098   6.382   1.478   8.423
37364SOL    HW114099   6.416   1.485   8.333
37364SOL    HW214100   6.321   1.404   8.419
37365SOL     OW14101   0.211   9.898   2.329
37365SOL    HW114102   0.155   9.957   2.279
37365SOL    HW214103   0.265   9.855   2.263
37366SOL     OW14104   1.190   9.844   6.378
37366SOL    HW114105   1.220   9.876   6.293
37366SOL    HW214106   1.130   9.911   6.409
37367SOL     OW14107   0.111   4.548   4.639
37367SOL    HW114108   0.027   4.519   4.675
37367SOL    HW214109   0.089   4.582   4.552
37368SOL     OW14110   5.641   1.892   0.674
37368SOL    HW114111   5.727   1.869   0.710
37368SOL    HW214112   5.617   1.973   0.717
37369SOL     OW14113   0.875   2.890   0.140
37369SOL    HW114114   0.858   2.800   0.110
37369SOL    HW214115   0.799   2.940   0.110
37370SOL     OW14116   3.557   4.091   2.581
37370SOL    HW114117   3.512   4.175   2.575
37370SOL    HW214118   3.582   4.083   2.673
37371SOL     OW14119   6.482   5.921  10.922
37371SOL    HW114120   6.417   5.884  10.982
37371SOL    HW214121   6.459   6.013  10.914
37372SOL     OW14122   5.901   2.568  10.786
37372SOL    HW114123   5.877   2.541  10.697
37372SOL    HW214124   5.912   2.486  10.834
37373SOL     OW14125   7.568  10.716   5.760
37373SOL    HW114126   7.649  10.699   5.712
37373SOL    HW214127   7.532  10.794   5.718
37374SOL     OW14128   4.458   2.076  10.363
37374SOL    HW114129   4.375   2.045  10.398
37374SOL    HW214130   4.509   2.101  10.440
37375SOL     OW14131   9.670   7.898   9.165
37375SOL    HW114132   9.640   7.984   9.137
37375SOL    HW214133   9.598   7.862   9.217
37376SOL     OW14134   5.956   7.275   6.853
37376SOL    HW114135   5.890   7.342   6.871
37376SOL    HW214136   5.906   7.194   6.839
37377SOL     OW14137   0.319   8.700   1.453
37377SOL    HW114138   0.245   8.675   1.508
37377SOL    HW214139   0.281   8.758   1.387
37378SOL     OW14140   1.048   7.069   7.050
37378SOL    HW114141   1.013   7.066   6.961
37378SOL    HW214142   0.980   7.111   7.101
37379SOL     OW14143   2.480   9.079   8.676
37379SOL    HW114144   2.541   9.006   8.662
37379SOL    HW214145   2.503   9.113   8.762
37380SOL     OW14146   9.482   9.277   1.947
37380SOL    HW114147   9.422   9.238   1.883
37380SOL    HW214148   9.470   9.224   2.026
37381SOL     OW14149  10.151  10.920   0.918
37381SOL    HW114150  10.063  10.893   0.893
37381SOL    HW214151  10.138  11.000   0.969
37382SOL     OW14152   0.289   9.789   3.297
37382SOL    HW114153   0.312   9.870   3.251
37382SOL    HW214154   0.219   9.814   3.357
37383SOL     OW14155   4.500   0.519   4.622
37383SOL    HW114156   4.487   0.604   4.663
37383SOL    HW214157   4.594   0.502   4.630
37384SOL     OW14158   9.065   3.625   5.799
37384SOL    HW114159   9.109   3.545   5.828
37384SOL    HW214160   9.093   3.635   5.708
37385SOL     OW14161   7.551   7.854   6.550
37385SOL    HW114162   7.487   7.923   6.536
37385SOL    HW214163   7.597   7.880   6.629
37386SOL     OW14164   1.000   0.736   8.196
37386SOL    HW114165   0.914   0.755   8.232
37386SOL    HW214166   1.044   0.821   8.191
37387SOL     OW14167   0.154   0.501   2.942
37387SOL    HW114168   0.224   0.436   2.945
37387SOL    HW214169   0.117   0.501   3.030
37388SOL     OW14170   8.546   5.969   7.637
37388SOL    HW114171   8.460   5.974   7.677
37388SOL    HW214172   8.596   5.910   7.694
37389SOL     OW14173   0.890   0.530  10.879
37389SOL    HW114174   0.907   0.507  10.787
37389SOL    HW214175   0.854   0.618  10.875
37390SOL     OW14176   9.548   0.164  10.960
37390SOL    HW114177   9.588   0.085  10.924
37390SOL    HW214178   9.461   0.136  10.989
37391SOL     OW14179   9.830   4.269   7.110
37391SOL    HW114180   9.803   4.184   7.074
37391SOL    HW214181   9.925   4.269   7.101
37392SOL     OW14182   7.773   0.459   2.061
37392SOL    HW114183   7.835   0.467   2.133
37392SOL    HW214184   7.791   0.535   2.006
37393SOL     OW14185  10.481   4.450   8.820
37393SOL    HW114186  10.500   4.541   8.799
37393SOL    HW214187  10.389   4.450   8.845
37394SOL     OW14188   7.182  10.710   2.791
37394SOL    HW114189   7.225  10.783   2.746
37394SOL    HW214190   7.089  10.721   2.770
37395SOL     OW14191   6.307   5.413   2.177
37395SOL    HW114192   6.274   5.471   2.108
37395SOL    HW214193   6.265   5.329   2.159
37396SOL     OW14194   9.522   2.098   6.895
37396SOL    HW114195   9.611   2.068   6.915
37396SOL    HW214196   9.475   2.090   6.978
37397SOL     OW14197  10.576   2.952   6.336
37397SOL    HW114198  10.612   3.006   6.266
37397SOL    HW214199  10.588   3.003   6.415
37398SOL     OW14200   9.492   7.982   2.477
37398SOL    HW114201   9.539   8.041   2.536
37398SOL    HW214202   9.459   7.912   2.534
37399SOL     OW14203  10.074   4.100   4.829
37399SOL    HW114204   9.998   4.126   4.881
37399SOL    HW214205  10.150   4.120   4.884
37400SOL     OW14206   8.037   8.798   3.276
37400SOL    HW114207   8.125   8.765   3.294
37400SOL    HW214208   8.024   8.780   3.183
37401SOL     OW14209   2.625   3.688   5.996
37401SOL    HW114210   2.612   3.593   5.986
37401SOL    HW214211   2.591   3.725   5.915
37402SOL     OW14212   1.150   9.793   3.224
37402SOL    HW114213   1.177   9.866   3.279
37402SOL    HW214214   1.067   9.763   3.261
37403SOL     OW14215   3.915  10.731   9.625
37403SOL    HW114216   3.861  10.778   9.561
37403SOL    HW214217   3.865  10.652   9.644
37404SOL     OW14218   3.908   5.980   1.118
37404SOL    HW114219   3.895   5.885   1.110
37404SOL    HW214220   3.862   6.004   1.198
37405SOL     OW14221   4.320   2.653   2.553
37405SOL    HW114222   4.300   2.740   2.519
37405SOL    HW214223   4.359   2.669   2.639
37406SOL     OW14224   5.601   3.978  11.032
37406SOL    HW114225   5.512   3.950  11.012
37406SOL    HW214226   5.653   3.898  11.026
37407SOL     OW14227   2.051   5.331   1.940
37407SOL    HW114228   2.129   5.327   1.995
37407SOL    HW214229   2.074   5.279   1.863
37408SOL     OW14230   1.346  10.810   4.791
37408SOL    HW114231   1.382  10.886   4.745
37408SOL    HW214232   1.412  10.788   4.857
37409SOL     OW14233   8.856   3.326   4.230
37409SOL    HW114234   8.919   3.398   4.230
37409SOL    HW214235   8.908   3.248   4.210
37410SOL     OW14236   9.176   1.395   6.830
37410SOL    HW114237   9.130   1.311   6.839
37410SOL    HW214238   9.192   1.423   6.920
37411SOL     OW14239   0.782  10.887   3.219
37411SOL    HW114240   0.755  10.978   3.229
37411SOL    HW214241   0.856  10.877   3.279
37412SOL     OW14242   7.071   0.950   9.781
37412SOL    HW114243   7.002   1.010   9.755
37412SOL    HW214244   7.039   0.909   9.861
37413SOL     OW14245   0.348   0.678   1.661
37413SOL    HW114246   0.395   0.666   1.743
37413SOL    HW214247   0.257   0.658   1.682
37414SOL     OW14248   2.882   7.329   3.751
37414SOL    HW114249   2.927   7.406   3.716
37414SOL    HW214250   2.803   7.364   3.792
37415SOL     OW14251   5.117   8.252   5.627
37415SOL    HW114252   5.041   8.309   5.640
37415SOL    HW214253   5.083   8.163   5.637
37416SOL     OW14254   4.870   8.784   6.617
37416SOL    HW114255   4.776   8.766   6.618
37416SOL    HW214256   4.909   8.712   6.667
37417SOL     OW14257   8.666   7.048   8.378
37417SOL    HW114258   8.675   6.962   8.336
37417SOL    HW214259   8.720   7.042   8.456
37418SOL     OW14260   8.975   3.400   7.565
37418SOL    HW114261   9.039   3.467   7.588
37418SOL    HW214262   8.906   3.408   7.631
37419SOL     OW14263   2.541   6.134   4.297
37419SOL    HW114264   2.610   6.085   4.251
37419SOL    HW214265   2.588   6.188   4.359
37420SOL     OW14266  11.002   0.913  10.237
37420SOL    HW114267  11.097   0.920  10.245
37420SOL    HW214268  10.969   0.999  10.261
37421SOL     OW14269  10.406   3.191   8.245
37421SOL    HW114270  10.337   3.194   8.179
37421SOL    HW214271  10.484   3.163   8.197
37422SOL     OW14272   1.508  10.243  10.222
37422SOL    HW114273   1.443  10.302  10.259
37422SOL    HW214274   1.561  10.215  10.297
37423SOL     OW14275   3.717   1.693   5.604
37423SOL    HW114276   3.782   1.713   5.671
37423SOL    HW214277   3.665   1.622   5.641
37424SOL     OW14278   5.998   3.813   8.361
37424SOL    HW114279   6.018   3.826   8.453
37424SOL    HW214280   5.942   3.735   8.359
37425SOL     OW14281   6.269   3.869   0.739
37425SOL    HW114282   6.257   3.961   0.761
37425SOL    HW214283   6.299   3.828   0.820
37426SOL     OW14284  10.129   2.727   7.458
37426SOL    HW114285  10.139   2.807   7.509
37426SOL    HW214286  10.116   2.658   7.523
37427SOL     OW14287   8.283   6.427   7.566
37427SOL    HW114288   8.204   6.374   7.561
37427SOL    HW214289   8.352   6.364   7.588
37428SOL     OW14290   3.332   4.578   6.122
37428SOL    HW114291   3.354   4.559   6.213
37428SOL    HW214292   3.251   4.629   6.126
37429SOL     OW14293   9.790   2.097   6.405
37429SOL    HW114294   9.717   2.084   6.465
37429SOL    HW214295   9.790   2.191   6.386
37430SOL     OW14296   8.311   9.791   3.199
37430SOL    HW114297   8.290   9.723   3.263
37430SOL    HW214298   8.377   9.845   3.242
37431SOL     OW14299   0.585   8.471   1.197
37431SOL    HW114300   0.535   8.389   1.193
37431SOL    HW214301   0.650   8.456   1.266
37432SOL     OW14302   7.270   6.133   8.287
37432SOL    HW114303   7.178   6.118   8.265
37432SOL    HW214304   7.317   6.112   8.206
37433SOL     OW14305   9.536   6.229   0.691
37433SOL    HW114306   9.533   6.133   0.693
37433SOL    HW214307   9.629   6.249   0.680
37434SOL     OW14308   5.620   2.341   5.973
37434SOL    HW114309   5.712   2.356   5.950
37434SOL    HW214310   5.620   2.255   6.016
37435SOL     OW14311   9.575   3.921   6.673
37435SOL    HW114312   9.614   3.962   6.750
37435SOL    HW214313   9.643   3.862   6.640
37436SOL     OW14314  10.967   2.446   7.973
37436SOL    HW114315  10.942   2.511   8.038
37436SOL    HW214316  10.887   2.429   7.924
37437SOL     OW14317   2.531   0.429   3.798
37437SOL    HW114318   2.517   0.519   3.826
37437SOL    HW214319   2.500   0.376   3.871
37438SOL     OW14320   3.004   0.500   6.814
37438SOL    HW114321   3.062   0.538   6.880
37438SOL    HW214322   2.984   0.412   6.847
37439SOL     OW14323   4.037  10.883   2.431
37439SOL    HW114324   4.008  10.971   2.457
37439SOL    HW214325   3.979  10.824   2.478
37440SOL     OW14326   9.905   6.055   7.881
37440SOL    HW114327   9.962   6.125   7.849
37440SOL    HW214328   9.938   6.035   7.968
37441SOL     OW14329  10.003   5.863   2.227
37441SOL    HW114330  10.064   5.933   2.249
37441SOL    HW214331  10.019   5.845   2.134
37442SOL     OW14332   9.278   4.264  10.850
37442SOL    HW114333   9.350   4.256  10.786
37442SOL    HW214334   9.234   4.345  10.826
37443SOL     OW14335  10.075   0.101   4.381
37443SOL    HW114336  10.125   0.062   4.309
37443SOL    HW214337  10.040   0.026   4.429
37444SOL     OW14338   1.987   3.559  10.091
37444SOL    HW114339   1.895   3.580  10.077
37444SOL    HW214340   2.026   3.564  10.003
37445SOL     OW14341   9.308   1.783  10.030
37445SOL    HW114342   9.393   1.739  10.023
37445SOL    HW214343   9.327   1.863  10.079
37446SOL     OW14344   6.803   6.585   5.773
37446SOL    HW114345   6.767   6.545   5.852
37446SOL    HW214346   6.807   6.513   5.710
37447SOL     OW14347   4.990   3.296   9.568
37447SOL    HW114348   5.015   3.372   9.515
37447SOL    HW214349   5.049   3.299   9.643
37448SOL     OW14350   4.713  10.692   1.717
37448SOL    HW114351   4.771  10.647   1.779
37448SOL    HW214352   4.771  10.751   1.669
37449SOL     OW14353   6.348   8.664   6.892
37449SOL    HW114354   6.317   8.626   6.974
37449SOL    HW214355   6.417   8.604   6.862
37450SOL     OW14356   4.570   4.262   0.747
37450SOL    HW114357   4.475   4.255   0.745
37450SOL    HW214358   4.590   4.292   0.835
37451SOL     OW14359   9.010   8.492   9.604
37451SOL    HW114360   9.075   8.562   9.611
37451SOL    HW214361   8.945   8.525   9.542
37452SOL     OW14362   3.929   1.907  10.098
37452SOL    HW114363   4.012   1.890  10.142
37452SOL    HW214364   3.954   1.944  10.013
37453SOL     OW14365   0.567  10.332   0.334
37453SOL    HW114366   0.546  10.239   0.344
37453SOL    HW214367   0.539  10.372   0.416
37454SOL     OW14368  10.450   7.763  10.890
37454SOL    HW114369  10.389   7.811  10.834
37454SOL    HW214370  10.520   7.825  10.909
37455SOL     OW14371  10.252   7.786   1.913
37455SOL    HW114372  10.290   7.771   1.999
37455SOL    HW214373  10.174   7.730   1.911
37456SOL     OW14374   3.198   0.724   9.826
37456SOL    HW114375   3.243   0.807   9.812
37456SOL    HW214376   3.198   0.711   9.921
37457SOL     OW14377  10.638   8.564   4.905
37457SOL    HW114378  10.706   8.610   4.857
37457SOL    HW214379  10.598   8.630   4.961
37458SOL     OW14380   4.072   9.182   3.488
37458SOL    HW114381   3.981   9.153   3.488
37458SOL    HW214382   4.068   9.276   3.473
37459SOL     OW14383   7.958   1.903   7.585
37459SOL    HW114384   7.960   1.993   7.618
37459SOL    HW214385   8.041   1.892   7.538
37460SOL     OW14386   7.599   0.852   9.251
37460SOL    HW114387   7.652   0.786   9.295
37460SOL    HW214388   7.543   0.888   9.319
37461SOL     OW14389   6.534   1.207  10.039
37461SOL    HW114390   6.499   1.206   9.950
37461SOL    HW214391   6.603   1.273  10.037
37462SOL     OW14392   3.494   2.138   9.885
37462SOL    HW114393   3.542   2.062   9.851
37462SOL    HW214394   3.405   2.106   9.897
37463SOL     OW14395   1.318   9.621   1.473
37463SOL    HW114396   1.287   9.632   1.383
37463SOL    HW214397   1.340   9.528   1.479
37464SOL     OW14398   3.617   7.305   7.531
37464SOL    HW114399   3.563   7.323   7.454
37464SOL    HW214400   3.677   7.236   7.501
37465SOL     OW14401   6.800   1.704   9.562
37465SOL    HW114402   6.768   1.678   9.648
37465SOL    HW214403   6.747   1.780   9.538
37466SOL     OW14404  10.262   2.288   2.933
37466SOL    HW114405  10.215   2.369   2.952
37466SOL    HW214406  10.194   2.221   2.925
37467SOL     OW14407   8.724  10.240   2.960
37467SOL    HW114408   8.645  10.273   3.001
37467SOL    HW214409   8.783  10.315   2.957
37468SOL     OW14410   2.778  10.046   9.562
37468SOL    HW114411   2.703  10.041   9.620
37468SOL    HW214412   2.841   9.984   9.599
37469SOL     OW14413   9.383   2.152   1.772
37469SOL    HW114414   9.427   2.156   1.687
37469SOL    HW214415   9.312   2.216   1.766
37470SOL     OW14416   8.669   5.203   7.580
37470SOL    HW114417   8.704   5.272   7.636
37470SOL    HW214418   8.662   5.127   7.637
37471SOL     OW14419   7.341   9.180   8.330
37471SOL    HW114420   7.362   9.170   8.237
37471SOL    HW214421   7.426   9.195   8.372
37472SOL     OW14422   1.583   7.702   3.784
37472SOL    HW114423   1.536   7.625   3.816
37472SOL    HW214424   1.574   7.767   3.853
37473SOL     OW14425   6.813   1.743   2.721
37473SOL    HW114426   6.877   1.811   2.741
37473SOL    HW214427   6.730   1.789   2.711
37474SOL     OW14428   9.417   1.312   4.060
37474SOL    HW114429   9.483   1.328   4.127
37474SOL    HW214430   9.443   1.368   3.987
37475SOL     OW14431   7.496   3.609   0.918
37475SOL    HW114432   7.565   3.586   0.980
37475SOL    HW214433   7.467   3.525   0.882
37476SOL     OW14434   7.887   3.937   3.453
37476SOL    HW114435   7.813   3.895   3.409
37476SOL    HW214436   7.948   3.959   3.382
37477SOL     OW14437   1.977  10.937  10.726
37477SOL    HW114438   1.948  10.849  10.703
37477SOL    HW214439   2.053  10.923  10.782
37478SOL     OW14440   0.142   3.880   2.113
37478SOL    HW114441   0.163   3.901   2.204
37478SOL    HW214442   0.162   3.786   2.105
37479SOL     OW14443   4.663   5.971   0.619
37479SOL    HW114444   4.591   6.005   0.671
37479SOL    HW214445   4.727   5.941   0.683
37480SOL     OW14446   1.007   2.018   7.325
37480SOL    HW114447   1.094   2.032   7.287
37480SOL    HW214448   1.024   1.985   7.413
37481SOL     OW14449   8.516   3.948   6.602
37481SOL    HW114450   8.555   4.035   6.596
37481SOL    HW214451   8.581   3.890   6.563
37482SOL     OW14452   8.578   2.037   9.369
37482SOL    HW114453   8.570   2.125   9.404
37482SOL    HW214454   8.595   2.050   9.275
37483SOL     OW14455   9.665   0.972   9.104
37483SOL    HW114456   9.619   0.976   9.020
37483SOL    HW214457   9.743   0.918   9.086
37484SOL     OW14458   5.220   2.678   3.180
37484SOL    HW114459   5.205   2.746   3.114
37484SOL    HW214460   5.294   2.710   3.231
37485SOL     OW14461   0.550   7.400   1.604
37485SOL    HW114462   0.483   7.355   1.655
37485SOL    HW214463   0.502   7.441   1.532
37486SOL     OW14464   7.910   3.848   0.518
37486SOL    HW114465   7.943   3.937   0.529
37486SOL    HW214466   7.837   3.857   0.457
37487SOL     OW14467   8.594   5.604   7.833
37487SOL    HW114468   8.616   5.520   7.873
37487SOL    HW214469   8.629   5.598   7.744
37488SOL     OW14470   5.515   9.931   1.810
37488SOL    HW114471   5.426   9.965   1.801
37488SOL    HW214472   5.552   9.977   1.885
37489SOL     OW14473   7.690   9.326   5.129
37489SOL    HW114474   7.759   9.363   5.073
37489SOL    HW214475   7.650   9.401   5.172
37490SOL     OW14476   1.603   0.651   5.943
37490SOL    HW114477   1.669   0.584   5.962
37490SOL    HW214478   1.644   0.706   5.876
37491SOL     OW14479   7.330   6.576  10.959
37491SOL    HW114480   7.302   6.600  11.047
37491SOL    HW214481   7.249   6.570  10.908
37492SOL     OW14482   2.814   1.646  10.462
37492SOL    HW114483   2.845   1.644  10.552
37492SOL    HW214484   2.838   1.560  10.426
37493SOL     OW14485   8.181   3.262   6.606
37493SOL    HW114486   8.174   3.243   6.512
37493SOL    HW214487   8.225   3.347   6.610
37494SOL     OW14488   5.527  10.234   9.588
37494SOL    HW114489   5.618  10.237   9.558
37494SOL    HW214490   5.476  10.252   9.509
37495SOL     OW14491   7.027   4.424   2.591
37495SOL    HW114492   7.074   4.442   2.672
37495SOL    HW214493   6.935   4.432   2.614
37496SOL     OW14494  10.483   9.101   2.299
37496SOL    HW114495  10.500   9.085   2.391
37496SOL    HW214496  10.394   9.135   2.296
37497SOL     OW14497   7.695   3.173   3.146
37497SOL    HW114498   7.692   3.101   3.209
37497SOL    HW214499   7.607   3.209   3.146
37498SOL     OW14500   2.247   3.503   7.027
37498SOL    HW114501   2.223   3.508   6.934
37498SOL    HW214502   2.334   3.543   7.031
37499SOL     OW14503  10.156   5.027   6.038
37499SOL    HW114504  10.232   5.072   6.075
37499SOL    HW214505  10.134   4.960   6.103
37500SOL     OW14506   0.244   2.724   1.866
37500SOL    HW114507   0.211   2.749   1.952
37500SOL    HW214508   0.322   2.778   1.854
37501SOL     OW14509  10.857   0.423   9.420
37501SOL    HW114510  10.914   0.478   9.366
37501SOL    HW214511  10.768   0.443   9.390
37502SOL     OW14512   8.133   0.040   8.994
37502SOL    HW114513   8.160   0.132   8.995
37502SOL    HW214514   8.085   0.027   9.075
37503SOL     OW14515   1.291  10.270   4.370
37503SOL    HW114516   1.305  10.315   4.286
37503SOL    HW214517   1.239  10.331   4.422
37504SOL     OW14518   7.935  10.572  10.498
37504SOL    HW114519   8.018  10.618  10.485
37504SOL    HW214520   7.900  10.560  10.409
37505SOL     OW14521   1.682   8.025   6.563
37505SOL    HW114522   1.611   8.086   6.544
37505SOL    HW214523   1.760   8.068   6.528
37506SOL     OW14524   0.661   6.249   9.079
37506SOL    HW114525   0.689   6.267   9.169
37506SOL    HW214526   0.574   6.210   9.088
37507SOL     OW14527   3.138   8.353   0.469
37507SOL    HW114528   3.186   8.330   0.389
37507SOL    HW214529   3.072   8.416   0.440
37508SOL     OW14530   8.201   0.114   1.393
37508SOL    HW114531   8.289   0.142   1.366
37508SOL    HW214532   8.214   0.071   1.477
37509SOL     OW14533   5.592   1.942   4.684
37509SOL    HW114534   5.591   2.037   4.694
37509SOL    HW214535   5.665   1.912   4.739
37510SOL     OW14536   3.172   8.024   2.050
37510SOL    HW114537   3.118   7.976   1.987
37510SOL    HW214538   3.262   8.005   2.024
37511SOL     OW14539   1.137   0.747   0.043
37511SOL    HW114540   1.065   0.808   0.060
37511SOL    HW214541   1.179   0.735   0.128
37512SOL     OW14542   1.703   1.378   4.341
37512SOL    HW114543   1.654   1.459   4.336
37512SOL    HW214544   1.646   1.318   4.390
37513SOL     OW14545   6.413   4.670   4.035
37513SOL    HW114546   6.429   4.722   4.113
37513SOL    HW214547   6.370   4.590   4.067
37514SOL     OW14548   9.989  10.016   3.140
37514SOL    HW114549   9.952   9.929   3.155
37514SOL    HW214550   9.957  10.040   3.053
37515SOL     OW14551   9.478   6.592   5.781
37515SOL    HW114552   9.512   6.681   5.784
37515SOL    HW214553   9.527   6.550   5.710
37516SOL     OW14554   8.499   0.788  10.800
37516SOL    HW114555   8.566   0.720  10.800
37516SOL    HW214556   8.442   0.765  10.726
37517SOL     OW14557   6.677   2.189   0.650
37517SOL    HW114558   6.701   2.270   0.694
37517SOL    HW214559   6.633   2.137   0.717
37518SOL     OW14560   3.176   3.630   6.710
37518SOL    HW114561   3.218   3.702   6.757
37518SOL    HW214562   3.085   3.656   6.702
37519SOL     OW14563   0.727  11.066  10.100
37519SOL    HW114564   0.752  11.109  10.182
37519SOL    HW214565   0.771  11.117  10.032
37520SOL     OW14566   7.728   7.316   7.250
37520SOL    HW114567   7.674   7.391   7.274
37520SOL    HW214568   7.731   7.318   7.154
37521SOL     OW14569   8.642   2.639   7.674
37521SOL    HW114570   8.694   2.719   7.681
37521SOL    HW214571   8.568   2.663   7.619
37522SOL     OW14572   3.853   2.496   4.308
37522SOL    HW114573   3.894   2.450   4.234
37522SOL    HW214574   3.819   2.425   4.363
37523SOL     OW14575   9.902   1.034   0.235
37523SOL    HW114576   9.843   1.078   0.173
37523SOL    HW214577   9.983   1.020   0.185
37524SOL     OW14578  10.863   0.913   2.157
37524SOL    HW114579  10.842   0.954   2.240
37524SOL    HW214580  10.958   0.904   2.158
37525SOL     OW14581   6.056   8.885   8.375
37525SOL    HW114582   6.132   8.913   8.426
37525SOL    HW214583   5.987   8.870   8.439
37526SOL     OW14584   8.502   3.004  10.287
37526SOL    HW114585   8.467   2.973  10.203
37526SOL    HW214586   8.582   3.051  10.263
37527SOL     OW14587   3.333  10.826   1.213
37527SOL    HW114588   3.325  10.742   1.258
37527SOL    HW214589   3.264  10.880   1.251
37528SOL     OW14590  10.999   4.572   9.842
37528SOL    HW114591  10.929   4.617   9.795
37528SOL    HW214592  10.968   4.567   9.932
37529SOL     OW14593   3.744   9.334   2.841
37529SOL    HW114594   3.755   9.288   2.758
37529SOL    HW214595   3.833   9.346   2.874
37530SOL     OW14596   8.814   5.085   2.042
37530SOL    HW114597   8.799   5.159   2.101
37530SOL    HW214598   8.726   5.059   2.014
37531SOL     OW14599   7.232   4.675   1.947
37531SOL    HW114600   7.179   4.602   1.915
37531SOL    HW214601   7.223   4.671   2.042
37532SOL     OW14602   1.289   0.422   0.879
37532SOL    HW114603   1.195   0.409   0.891
37532SOL    HW214604   1.304   0.513   0.902
37533SOL     OW14605  10.580   5.449   3.487
37533SOL    HW114606  10.669   5.426   3.515
37533SOL    HW214607  10.579   5.428   3.393
37534SOL     OW14608   8.565   3.512   2.696
37534SOL    HW114609   8.518   3.462   2.763
37534SOL    HW214610   8.512   3.502   2.617
37535SOL     OW14611  11.084   8.455   2.979
37535SOL    HW114612  11.033   8.523   2.935
37535SOL    HW214613  11.042   8.373   2.952
37536SOL     OW14614  10.685   7.430   4.719
37536SOL    HW114615  10.725   7.503   4.765
37536SOL    HW214616  10.681   7.459   4.628
37537SOL     OW14617  10.520  10.807   7.992
37537SOL    HW114618  10.534  10.895   8.028
37537SOL    HW214619  10.602  10.787   7.946
37538SOL     OW14620   6.528  -0.002   9.850
37538SOL    HW114621   6.545   0.091   9.864
37538SOL    HW214622   6.504  -0.008   9.757
37539SOL     OW14623   6.429   6.431   0.848
37539SOL    HW114624   6.485   6.354   0.861
37539SOL    HW214625   6.442   6.484   0.926
37540SOL     OW14626  10.222   1.718   9.081
37540SOL    HW114627  10.161   1.689   9.013
37540SOL    HW214628  10.173   1.710   9.162
37541SOL     OW14629   6.488   2.058  10.646
37541SOL    HW114630   6.459   2.149  10.643
37541SOL    HW214631   6.520   2.045  10.735
37542SOL     OW14632   5.929   5.098   1.688
37542SOL    HW114633   5.925   5.118   1.781
37542SOL    HW214634   5.902   5.006   1.682
37543SOL     OW14635   7.940   8.839   8.270
37543SOL    HW114636   7.996   8.883   8.333
37543SOL    HW214637   7.917   8.907   8.206
37544SOL     OW14638   9.075   3.909   8.821
37544SOL    HW114639   8.994   3.858   8.820
37544SOL    HW214640   9.057   3.983   8.764
37545SOL     OW14641   9.581   2.821   9.474
37545SOL    HW114642   9.603   2.832   9.566
37545SOL    HW214643   9.548   2.906   9.447
37546SOL     OW14644   4.686   2.497   3.158
37546SOL    HW114645   4.660   2.535   3.241
37546SOL    HW214646   4.779   2.518   3.150
37547SOL     OW14647   1.508   2.923   8.425
37547SOL    HW114648   1.416   2.925   8.399
37547SOL    HW214649   1.545   2.851   8.374
37548SOL     OW14650   2.350   3.116   9.520
37548SOL    HW114651   2.436   3.143   9.487
37548SOL    HW214652   2.288   3.147   9.454
37549SOL     OW14653   9.095   1.111   1.822
37549SOL    HW114654   9.098   1.127   1.727
37549SOL    HW214655   9.019   1.054   1.834
37550SOL     OW14656  10.536   1.749   9.563
37550SOL    HW114657  10.609   1.806   9.540
37550SOL    HW214658  10.471   1.807   9.602
37551SOL     OW14659   6.668   2.887  10.304
37551SOL    HW114660   6.747   2.854  10.347
37551SOL    HW214661   6.617   2.808  10.283
37552SOL     OW14662   3.283   9.618   4.968
37552SOL    HW114663   3.269   9.529   4.935
37552SOL    HW214664   3.227   9.673   4.913
37553SOL     OW14665   5.036   1.393   8.608
37553SOL    HW114666   5.068   1.336   8.678
37553SOL    HW214667   5.020   1.333   8.535
37554SOL     OW14668   1.555   8.828  10.787
37554SOL    HW114669   1.634   8.839  10.734
37554SOL    HW214670   1.553   8.905  10.843
37555SOL     OW14671   1.342   3.406  10.083
37555SOL    HW114672   1.368   3.314  10.084
37555SOL    HW214673   1.425   3.454  10.086
37556SOL     OW14674   4.573   4.116   2.764
37556SOL    HW114675   4.651   4.160   2.797
37556SOL    HW214676   4.515   4.187   2.736
37557SOL     OW14677   8.176   4.936   1.882
37557SOL    HW114678   8.193   4.918   1.789
37557SOL    HW214679   8.224   4.868   1.929
37558SOL     OW14680   6.773  10.979   7.980
37558SOL    HW114681   6.708  10.971   7.910
37558SOL    HW214682   6.754  10.906   8.039
37559SOL     OW14683   3.334   1.647   1.293
37559SOL    HW114684   3.356   1.615   1.205
37559SOL    HW214685   3.398   1.716   1.310
37560SOL     OW14686   3.412   4.038   9.742
37560SOL    HW114687   3.392   4.115   9.688
37560SOL    HW214688   3.471   3.986   9.687
37561SOL     OW14689  10.422   6.825   2.069
37561SOL    HW114690  10.403   6.764   1.997
37561SOL    HW214691  10.367   6.794   2.141
37562SOL     OW14692   7.029   5.572   1.670
37562SOL    HW114693   7.054   5.499   1.612
37562SOL    HW214694   7.106   5.629   1.670
37563SOL     OW14695   1.934   6.773   9.648
37563SOL    HW114696   1.983   6.718   9.586
37563SOL    HW214697   1.843   6.763   9.621
37564SOL     OW14698   6.775  10.743   0.363
37564SOL    HW114699   6.724  10.741   0.444
37564SOL    HW214700   6.859  10.781   0.388
37565SOL     OW14701   8.567   1.577   4.827
37565SOL    HW114702   8.618   1.496   4.835
37565SOL    HW214703   8.612   1.626   4.758
37566SOL     OW14704  10.120   9.824   3.344
37566SOL    HW114705  10.081   9.904   3.310
37566SOL    HW214706  10.213   9.832   3.323
37567SOL     OW14707  10.861   0.181  10.334
37567SOL    HW114708  10.807   0.139  10.401
37567SOL    HW214709  10.915   0.244  10.382
37568SOL     OW14710   2.170   5.117   4.047
37568SOL    HW114711   2.161   5.111   4.142
37568SOL    HW214712   2.144   5.030   4.015
37569SOL     OW14713   9.622   3.735   0.943
37569SOL    HW114714   9.680   3.811   0.942
37569SOL    HW214715   9.535   3.769   0.923
37570SOL     OW14716   2.613   4.772   2.391
37570SOL    HW114717   2.562   4.843   2.430
37570SOL    HW214718   2.649   4.809   2.310
37571SOL     OW14719   3.142   6.725   2.091
37571SOL    HW114720   3.149   6.631   2.074
37571SOL    HW214721   3.048   6.743   2.089
37572SOL     OW14722  10.151   4.133   5.549
37572SOL    HW114723  10.193   4.196   5.490
37572SOL    HW214724  10.072   4.178   5.580
37573SOL     OW14725   3.680   1.712   1.027
37573SOL    HW114726   3.722   1.650   0.966
37573SOL    HW214727   3.730   1.702   1.108
37574SOL     OW14728   9.517   6.918   2.923
37574SOL    HW114729   9.481   6.971   2.852
37574SOL    HW214730   9.443   6.901   2.981
37575SOL     OW14731   3.147  10.211   0.620
37575SOL    HW114732   3.155  10.119   0.646
37575SOL    HW214733   3.193  10.216   0.536
37576SOL     OW14734  10.339   2.080   7.768
37576SOL    HW114735  10.246   2.088   7.748
37576SOL    HW214736  10.345   2.099   7.861
37577SOL     OW14737   9.583   9.564   2.262
37577SOL    HW114738   9.642   9.540   2.190
37577SOL    HW214739   9.576   9.659   2.256
37578SOL     OW14740  10.154   1.007   2.274
37578SOL    HW114741  10.090   1.038   2.210
37578SOL    HW214742  10.225   1.070   2.269
37579SOL     OW14743  10.351   7.430   6.727
37579SOL    HW114744  10.265   7.431   6.768
37579SOL    HW214745  10.413   7.433   6.800
37580SOL     OW14746   4.012  10.996   3.591
37580SOL    HW114747   3.935  10.968   3.640
37580SOL    HW214748   4.079  11.012   3.657
37581SOL     OW14749   3.629   8.926   6.760
37581SOL    HW114750   3.657   8.987   6.691
37581SOL    HW214751   3.645   8.839   6.722
37582SOL     OW14752   0.234   9.895   0.268
37582SOL    HW114753   0.225   9.990   0.262
37582SOL    HW214754   0.240   9.866   0.177
37583SOL     OW14755   9.339   7.823   1.253
37583SOL    HW114756   9.349   7.733   1.222
37583SOL    HW214757   9.246   7.830   1.276
37584SOL     OW14758   2.493   5.058  10.184
37584SOL    HW114759   2.546   5.137  10.188
37584SOL    HW214760   2.543   4.993  10.234
37585SOL     OW14761   3.160   1.223   0.697
37585SOL    HW114762   3.169   1.174   0.615
37585SOL    HW214763   3.075   1.266   0.690
37586SOL     OW14764   2.819  10.052   8.834
37586SOL    HW114765   2.788  10.128   8.785
37586SOL    HW214766   2.739  10.011   8.867
37587SOL     OW14767  10.346   9.235   9.960
37587SOL    HW114768  10.371   9.234   9.867
37587SOL    HW214769  10.417   9.282  10.004
37588SOL     OW14770   5.466   2.190   8.270
37588SOL    HW114771   5.478   2.180   8.175
37588SOL    HW214772   5.373   2.173   8.284
37589SOL     OW14773   7.091   0.368   2.593
37589SOL    HW114774   7.082   0.325   2.678
37589SOL    HW214775   7.080   0.461   2.611
37590SOL     OW14776   7.739   8.559   0.998
37590SOL    HW114777   7.684   8.483   0.978
37590SOL    HW214778   7.821   8.542   0.951
37591SOL     OW14779   2.521   9.034   6.186
37591SOL    HW114780   2.540   8.948   6.225
37591SOL    HW214781   2.607   9.073   6.171
37592SOL     OW14782   5.713   1.583   4.865
37592SOL    HW114783   5.714   1.487   4.873
37592SOL    HW214784   5.625   1.608   4.894
37593SOL     OW14785   8.839   5.667   5.277
37593SOL    HW114786   8.799   5.584   5.303
37593SOL    HW214787   8.777   5.705   5.215
37594SOL     OW14788   5.466   4.540  10.265
37594SOL    HW114789   5.380   4.581  10.260
37594SOL    HW214790   5.466   4.493  10.348
37595SOL     OW14791   0.316   1.273   6.436
37595SOL    HW114792   0.268   1.350   6.465
37595SOL    HW214793   0.298   1.206   6.502
37596SOL     OW14794   0.749   5.502   8.523
37596SOL    HW114795   0.805   5.557   8.468
37596SOL    HW214796   0.678   5.475   8.465
37597SOL     OW14797   0.908  10.897   0.513
37597SOL    HW114798   0.997  10.924   0.536
37597SOL    HW214799   0.856  10.914   0.591
37598SOL     OW14800   9.811   2.128   3.009
37598SOL    HW114801   9.752   2.180   2.955
37598SOL    HW214802   9.796   2.159   3.098
37599SOL     OW14803   9.131   8.742   6.893
37599SOL    HW114804   9.074   8.730   6.969
37599SOL    HW214805   9.090   8.690   6.823
37600SOL     OW14806   7.014   1.667   3.310
37600SOL    HW114807   6.954   1.592   3.304
37600SOL    HW214808   7.033   1.689   3.219
37601SOL     OW14809   1.781   1.138   1.049
37601SOL    HW114810   1.827   1.054   1.039
37601SOL    HW214811   1.782   1.176   0.961
37602SOL     OW14812   1.564   7.116   3.172
37602SOL    HW114813   1.520   7.114   3.087
37602SOL    HW214814   1.592   7.025   3.187
37603SOL     OW14815   5.385   9.843  10.965
37603SOL    HW114816   5.321   9.882  10.905
37603SOL    HW214817   5.456   9.907  10.969
37604SOL     OW14818  10.731   5.585   9.081
37604SOL    HW114819  10.752   5.524   9.009
37604SOL    HW214820  10.792   5.562   9.151
37605SOL     OW14821   8.440   5.564   2.906
37605SOL    HW114822   8.416   5.640   2.959
37605SOL    HW214823   8.360   5.513   2.898
37606SOL     OW14824   9.289   0.367   0.613
37606SOL    HW114825   9.218   0.309   0.585
37606SOL    HW214826   9.316   0.412   0.532
37607SOL     OW14827   4.147   5.272   5.584
37607SOL    HW114828   4.215   5.237   5.642
37607SOL    HW214829   4.115   5.195   5.536
37608SOL     OW14830   4.805   2.725   3.774
37608SOL    HW114831   4.828   2.775   3.696
37608SOL    HW214832   4.828   2.782   3.847
37609SOL     OW14833   6.589   0.118   3.378
37609SOL    HW114834   6.518   0.175   3.406
37609SOL    HW214835   6.628   0.163   3.303
37610SOL     OW14836   0.422   8.223   0.403
37610SOL    HW114837   0.393   8.188   0.487
37610SOL    HW214838   0.347   8.273   0.371
37611SOL     OW14839   1.140   1.265   2.732
37611SOL    HW114840   1.147   1.246   2.825
37611SOL    HW214841   1.229   1.253   2.698
37612SOL     OW14842   6.671   9.941   2.199
37612SOL    HW114843   6.705   9.945   2.109
37612SOL    HW214844   6.599  10.004   2.200
37613SOL     OW14845  10.299   3.027  10.474
37613SOL    HW114846  10.345   3.106  10.501
37613SOL    HW214847  10.355   2.989  10.406
37614SOL     OW14848  10.922   7.894   1.834
37614SOL    HW114849  10.995   7.863   1.780
37614SOL    HW214850  10.878   7.814   1.862
37615SOL     OW14851   2.346   2.279   0.821
37615SOL    HW114852   2.440   2.295   0.832
37615SOL    HW214853   2.338   2.246   0.731
37616SOL     OW14854   7.810   5.098   1.819
37616SOL    HW114855   7.831   5.172   1.876
37616SOL    HW214856   7.814   5.134   1.730
37617SOL     OW14857   3.772   5.769  10.824
37617SOL    HW114858   3.762   5.674  10.814
37617SOL    HW214859   3.772   5.783  10.918
37618SOL     OW14860   5.773   2.733   8.495
37618SOL    HW114861   5.692   2.778   8.471
37618SOL    HW214862   5.811   2.786   8.565
37619SOL     OW14863   6.777   4.233   3.595
37619SOL    HW114864   6.686   4.212   3.574
37619SOL    HW214865   6.778   4.246   3.690
37620SOL     OW14866   1.177   3.479   8.497
37620SOL    HW114867   1.198   3.385   8.502
37620SOL    HW214868   1.262   3.523   8.502
37621SOL     OW14869   0.875   7.965   0.613
37621SOL    HW114870   0.957   7.921   0.590
37621SOL    HW214871   0.877   8.046   0.563
37622SOL     OW14872  10.021   1.952   9.075
37622SOL    HW114873  10.005   1.887   9.006
37622SOL    HW214874   9.940   2.002   9.080
37623SOL     OW14875   7.715   4.843   0.131
37623SOL    HW114876   7.786   4.780   0.117
37623SOL    HW214877   7.757   4.929   0.123
37624SOL     OW14878  10.389   3.395   1.431
37624SOL    HW114879  10.294   3.390   1.436
37624SOL    HW214880  10.408   3.389   1.337
37625SOL     OW14881   1.218   6.469   9.531
37625SOL    HW114882   1.291   6.425   9.574
37625SOL    HW214883   1.142   6.448   9.585
37626SOL     OW14884   5.891   9.200   2.621
37626SOL    HW114885   5.850   9.173   2.538
37626SOL    HW214886   5.978   9.160   2.618
37627SOL     OW14887   1.717   1.658   9.849
37627SOL    HW114888   1.799   1.669   9.801
37627SOL    HW214889   1.721   1.722   9.919
37628SOL     OW14890   7.444   2.220   3.763
37628SOL    HW114891   7.472   2.151   3.702
37628SOL    HW214892   7.508   2.289   3.750
37629SOL     OW14893  10.221   9.200   2.315
37629SOL    HW114894  10.191   9.264   2.250
37629SOL    HW214895  10.168   9.122   2.298
37630SOL     OW14896  11.027   2.811   0.427
37630SOL    HW114897  10.939   2.821   0.391
37630SOL    HW214898  11.028   2.868   0.504
37631SOL     OW14899   0.848   4.406   1.003
37631SOL    HW114900   0.794   4.455   0.941
37631SOL    HW214901   0.934   4.402   0.962
37632SOL     OW14902   2.838   2.456   9.056
37632SOL    HW114903   2.810   2.461   8.964
37632SOL    HW214904   2.932   2.436   9.051
37633SOL     OW14905  10.756   7.253   4.136
37633SOL    HW114906  10.804   7.250   4.053
37633SOL    HW214907  10.666   7.272   4.110
37634SOL     OW14908   3.858   3.264   9.346
37634SOL    HW114909   3.918   3.245   9.418
37634SOL    HW214910   3.915   3.284   9.272
37635SOL     OW14911   9.763   8.790   3.231
37635SOL    HW114912   9.755   8.786   3.326
37635SOL    HW214913   9.850   8.826   3.216
37636SOL     OW14914   9.816  10.895  10.433
37636SOL    HW114915   9.860  10.812  10.449
37636SOL    HW214916   9.761  10.909  10.510
37637SOL     OW14917   5.749   7.659   3.658
37637SOL    HW114918   5.757   7.568   3.689
37637SOL    HW214919   5.725   7.709   3.736
37638SOL     OW14920   9.358   1.419   2.746
37638SOL    HW114921   9.323   1.360   2.679
37638SOL    HW214922   9.448   1.437   2.718
37639SOL     OW14923   0.369   3.525   0.111
37639SOL    HW114924   0.293   3.563   0.067
37639SOL    HW214925   0.332   3.460   0.171
37640SOL     OW14926   9.475   5.435   8.885
37640SOL    HW114927   9.465   5.523   8.919
37640SOL    HW214928   9.387   5.398   8.885
37641SOL     OW14929   7.615  10.710   8.637
37641SOL    HW114930   7.584  10.775   8.700
37641SOL    HW214931   7.594  10.626   8.677
37642SOL     OW14932  10.775   7.984   4.712
37642SOL    HW114933  10.728   7.930   4.775
37642SOL    HW214934  10.712   7.999   4.642
37643SOL     OW14935   0.512   9.863   1.387
37643SOL    HW114936   0.549   9.827   1.467
37643SOL    HW214937   0.450   9.796   1.357
37644SOL     OW14938   7.511   2.396  10.440
37644SOL    HW114939   7.595   2.387  10.394
37644SOL    HW214940   7.465   2.465  10.392
37645SOL     OW14941   4.699   6.061   3.616
37645SOL    HW114942   4.613   6.019   3.619
37645SOL    HW214943   4.759   5.994   3.649
37646SOL     OW14944   6.462  10.059  10.426
37646SOL    HW114945   6.485   9.976  10.384
37646SOL    HW214946   6.418  10.109  10.357
37647SOL     OW14947   4.384   4.898   4.953
37647SOL    HW114948   4.309   4.881   5.009
37647SOL    HW214949   4.358   4.865   4.867
37648SOL     OW14950   0.192   3.598   6.078
37648SOL    HW114951   0.195   3.691   6.058
37648SOL    HW214952   0.146   3.559   6.003
37649SOL     OW14953  10.449   7.219   1.366
37649SOL    HW114954  10.476   7.133   1.399
37649SOL    HW214955  10.436   7.272   1.444
37650SOL     OW14956   7.134   2.209   5.193
37650SOL    HW114957   7.192   2.152   5.142
37650SOL    HW214958   7.054   2.214   5.141
37651SOL     OW14959   7.880   7.989   8.642
37651SOL    HW114960   7.911   7.898   8.637
37651SOL    HW214961   7.954   8.041   8.610
37652SOL     OW14962   1.136   0.888   8.371
37652SOL    HW114963   1.160   0.956   8.433
37652SOL    HW214964   1.202   0.819   8.384
37653SOL     OW14965   9.781   6.619  11.089
37653SOL    HW114966   9.852   6.676  11.117
37653SOL    HW214967   9.786   6.544  11.148
37654SOL     OW14968   0.881   5.302   5.892
37654SOL    HW114969   0.812   5.340   5.838
37654SOL    HW214970   0.886   5.210   5.864
37655SOL     OW14971   7.840  10.036  10.756
37655SOL    HW114972   7.834   9.951  10.800
37655SOL    HW214973   7.776  10.030  10.685
37656SOL     OW14974   1.242   0.457   0.302
37656SOL    HW114975   1.285   0.413   0.376
37656SOL    HW214976   1.218   0.385   0.243
37657SOL     OW14977   6.284   9.954   2.323
37657SOL    HW114978   6.207   9.966   2.378
37657SOL    HW214979   6.355   9.937   2.384
37658SOL     OW14980   3.672   2.780  10.952
37658SOL    HW114981   3.627   2.722  10.890
37658SOL    HW214982   3.739   2.824  10.899
37659SOL     OW14983   7.403   2.137   6.191
37659SOL    HW114984   7.471   2.186   6.237
37659SOL    HW214985   7.450   2.088   6.122
37660SOL     OW14986   7.327   6.163   0.565
37660SOL    HW114987   7.345   6.229   0.498
37660SOL    HW214988   7.272   6.207   0.629
37661SOL     OW14989   2.158   1.347   8.927
37661SOL    HW114990   2.197   1.346   9.014
37661SOL    HW214991   2.231   1.327   8.868
37662SOL     OW14992   1.549   0.322  10.158
37662SOL    HW114993   1.576   0.378  10.085
37662SOL    HW214994   1.608   0.247  10.154
37663SOL     OW14995   8.105   1.916   9.422
37663SOL    HW114996   8.146   1.988   9.374
37663SOL    HW214997   8.044   1.877   9.359
37664SOL     OW14998   8.733   2.619   4.544
37664SOL    HW114999   8.690   2.646   4.624
37664SOL    HW215000   8.799   2.686   4.528
37665SOL     OW15001   9.258   6.863   0.028
37665SOL    HW115002   9.258   6.943  -0.023
37665SOL    HW215003   9.276   6.892   0.118
37666SOL     OW15004   8.871   9.625   3.900
37666SOL    HW115005   8.834   9.566   3.966
37666SOL    HW215006   8.800   9.639   3.837
37667SOL     OW15007   0.589   9.757   7.749
37667SOL    HW115008   0.628   9.680   7.707
37667SOL    HW215009   0.647   9.775   7.823
37668SOL     OW15010   5.143   8.646   1.487
37668SOL    HW115011   5.122   8.713   1.552
37668SOL    HW215012   5.117   8.563   1.528
37669SOL     OW15013   7.004   3.976   8.472
37669SOL    HW115014   7.088   3.989   8.515
37669SOL    HW215015   6.942   3.959   8.543
37670SOL     OW15016   1.088   9.387   8.100
37670SOL    HW115017   1.073   9.337   8.019
37670SOL    HW215018   1.074   9.323   8.170
37671SOL     OW15019   7.265   2.525   0.255
37671SOL    HW115020   7.268   2.607   0.304
37671SOL    HW215021   7.254   2.552   0.164
37672SOL     OW15022   5.591   8.240  10.372
37672SOL    HW115023   5.593   8.298  10.296
37672SOL    HW215024   5.509   8.261  10.417
37673SOL     OW15025   8.211   3.445   6.167
37673SOL    HW115026   8.214   3.368   6.224
37673SOL    HW215027   8.126   3.485   6.185
37674SOL     OW15028   8.010   2.334   4.024
37674SOL    HW115029   7.922   2.310   4.053
37674SOL    HW215030   8.000   2.421   3.985
37675SOL     OW15031   3.274   9.284   2.070
37675SOL    HW115032   3.349   9.273   2.129
37675SOL    HW215033   3.289   9.220   2.000
37676SOL     OW15034   3.417   3.511   1.534
37676SOL    HW115035   3.441   3.587   1.481
37676SOL    HW215036   3.497   3.458   1.538
37677SOL     OW15037   9.060   4.009   1.965
37677SOL    HW115038   9.085   4.052   2.046
37677SOL    HW215039   9.068   3.915   1.984
37678SOL     OW15040   1.683   8.427   7.151
37678SOL    HW115041   1.692   8.357   7.086
37678SOL    HW215042   1.589   8.430   7.169
37679SOL     OW15043   4.884   9.661   8.778
37679SOL    HW115044   4.937   9.613   8.841
37679SOL    HW215045   4.945   9.681   8.706
37680SOL     OW15046   1.672   1.196   7.847
37680SOL    HW115047   1.582   1.193   7.878
37680SOL    HW215048   1.678   1.277   7.797
37681SOL     OW15049   7.476   2.770   4.192
37681SOL    HW115050   7.464   2.781   4.097
37681SOL    HW215051   7.559   2.724   4.200
37682SOL     OW15052   0.726   3.669   4.800
37682SOL    HW115053   0.754   3.600   4.861
37682SOL    HW215054   0.721   3.748   4.853
37683SOL     OW15055   7.341  10.639   2.338
37683SOL    HW115056   7.264  10.600   2.296
37683SOL    HW215057   7.384  10.688   2.268
37684SOL     OW15058   5.779   1.966   0.088
37684SOL    HW115059   5.792   2.060   0.081
37684SOL    HW215060   5.721   1.955   0.164
37685SOL     OW15061   7.766   0.809   4.447
37685SOL    HW115062   7.861   0.818   4.446
37685SOL    HW215063   7.740   0.825   4.356
37686SOL     OW15064   1.509   1.738   6.386
37686SOL    HW115065   1.585   1.764   6.334
37686SOL    HW215066   1.449   1.699   6.322
37687SOL     OW15067  10.313   2.687   0.857
37687SOL    HW115068  10.266   2.612   0.894
37687SOL    HW215069  10.401   2.681   0.895
37688SOL     OW15070   0.534   5.460  10.004
37688SOL    HW115071   0.565   5.453  10.094
37688SOL    HW215072   0.575   5.386   9.959
37689SOL     OW15073   6.066   0.923   5.364
37689SOL    HW115074   6.104   0.958   5.444
37689SOL    HW215075   6.045   1.000   5.312
37690SOL     OW15076   3.981   6.567   8.316
37690SOL    HW115077   4.022   6.643   8.275
37690SOL    HW215078   4.038   6.493   8.293
37691SOL     OW15079   8.763   0.733   3.498
37691SOL    HW115080   8.671   0.710   3.483
37691SOL    HW215081   8.772   0.820   3.460
37692SOL     OW15082   5.291   9.161   2.474
37692SOL    HW115083   5.238   9.153   2.394
37692SOL    HW215084   5.283   9.076   2.517
37693SOL     OW15085   8.360   3.712   1.627
37693SOL    HW115086   8.280   3.661   1.614
37693SOL    HW215087   8.357   3.779   1.558
37694SOL     OW15088   4.202   8.630   2.613
37694SOL    HW115089   4.280   8.630   2.669
37694SOL    HW215090   4.129   8.647   2.672
37695SOL     OW15091   9.359   9.661   1.404
37695SOL    HW115092   9.287   9.607   1.371
37695SOL    HW215093   9.354   9.652   1.499
37696SOL     OW15094   0.906   9.080   7.337
37696SOL    HW115095   0.853   9.003   7.316
37696SOL    HW215096   0.996   9.048   7.336
37697SOL     OW15097   7.504  10.194  10.282
37697SOL    HW115098   7.512  10.167  10.190
37697SOL    HW215099   7.461  10.279  10.278
37698SOL     OW15100  11.048   2.365   3.514
37698SOL    HW115101  11.029   2.396   3.425
37698SOL    HW215102  10.990   2.290   3.526
37699SOL     OW15103   2.234   2.182  11.056
37699SOL    HW115104   2.192   2.113  11.005
37699SOL    HW215105   2.235   2.148  11.145
37700SOL     OW15106   5.342   5.134   1.294
37700SOL    HW115107   5.399   5.208   1.272
37700SOL    HW215108   5.382   5.059   1.249
37701SOL     OW15109   2.622   1.139   4.392
37701SOL    HW115110   2.707   1.183   4.385
37701SOL    HW215111   2.644   1.048   4.414
37702SOL     OW15112   2.894  10.346   7.884
37702SOL    HW115113   2.897  10.265   7.832
37702SOL    HW215114   2.836  10.325   7.957
37703SOL     OW15115   6.068   0.738   4.266
37703SOL    HW115116   6.080   0.775   4.353
37703SOL    HW215117   6.063   0.643   4.280
37704SOL     OW15118   4.785   9.084   8.100
37704SOL    HW115119   4.863   9.116   8.146
37704SOL    HW215120   4.808   9.091   8.007
37705SOL     OW15121   6.028   0.243   1.153
37705SOL    HW115122   5.992   0.208   1.234
37705SOL    HW215123   6.123   0.245   1.167
37706SOL     OW15124   4.891   0.741  10.949
37706SOL    HW115125   4.910   0.821  10.901
37706SOL    HW215126   4.798   0.748  10.972
37707SOL     OW15127   3.905   5.907   1.942
37707SOL    HW115128   3.958   5.967   1.994
37707SOL    HW215129   3.926   5.820   1.977
37708SOL     OW15130   2.329   0.719   0.455
37708SOL    HW115131   2.318   0.624   0.460
37708SOL    HW215132   2.301   0.742   0.366
37709SOL     OW15133   3.188   1.668   6.230
37709SOL    HW115134   3.195   1.736   6.297
37709SOL    HW215135   3.242   1.700   6.157
37710SOL     OW15136   9.198   7.277   4.704
37710SOL    HW115137   9.250   7.201   4.676
37710SOL    HW215138   9.189   7.266   4.798
37711SOL     OW15139   1.617   0.205   2.802
37711SOL    HW115140   1.611   0.223   2.708
37711SOL    HW215141   1.527   0.210   2.833
37712SOL     OW15142   5.528   2.281   0.598
37712SOL    HW115143   5.487   2.205   0.555
37712SOL    HW215144   5.480   2.356   0.564
37713SOL     OW15145   4.129   8.052   4.229
37713SOL    HW115146   4.051   8.077   4.277
37713SOL    HW215147   4.201   8.098   4.273
37714SOL     OW15148   3.248   3.186  10.824
37714SOL    HW115149   3.218   3.095  10.814
37714SOL    HW215150   3.255   3.219  10.734
37715SOL     OW15151   7.357   0.518   9.715
37715SOL    HW115152   7.280   0.562   9.680
37715SOL    HW215153   7.422   0.523   9.644
37716SOL     OW15154   9.243  10.615  10.906
37716SOL    HW115155   9.337  10.598  10.897
37716SOL    HW215156   9.213  10.633  10.817
37717SOL     OW15157   8.851   7.023   1.614
37717SOL    HW115158   8.775   6.996   1.562
37717SOL    HW215159   8.813   7.069   1.689
37718SOL     OW15160   3.665   3.003   4.912
37718SOL    HW115161   3.616   3.084   4.924
37718SOL    HW215162   3.644   2.950   4.989
37719SOL     OW15163   7.712   9.722   3.864
37719SOL    HW115164   7.805   9.707   3.845
37719SOL    HW215165   7.707   9.814   3.888
37720SOL     OW15166   0.117   6.222   3.440
37720SOL    HW115167   0.050   6.289   3.426
37720SOL    HW215168   0.174   6.257   3.508
37721SOL     OW15169   5.026   8.771   3.589
37721SOL    HW115170   4.999   8.755   3.498
37721SOL    HW215171   4.960   8.830   3.624
37722SOL     OW15172   9.159   2.978   6.384
37722SOL    HW115173   9.252   2.983   6.363
37722SOL    HW215174   9.117   3.036   6.320
37723SOL     OW15175   0.578   2.571   9.679
37723SOL    HW115176   0.490   2.572   9.716
37723SOL    HW215177   0.623   2.644   9.722
37724SOL     OW15178   9.037   7.304   5.569
37724SOL    HW115179   9.067   7.220   5.605
37724SOL    HW215180   9.117   7.347   5.539
37725SOL     OW15181   3.600   2.605   7.696
37725SOL    HW115182   3.634   2.599   7.606
37725SOL    HW215183   3.515   2.561   7.692
37726SOL     OW15184   9.465   0.248   3.082
37726SOL    HW115185   9.556   0.238   3.111
37726SOL    HW215186   9.418   0.177   3.126
37727SOL     OW15187   0.790  10.570   2.436
37727SOL    HW115188   0.882  10.584   2.461
37727SOL    HW215189   0.795  10.530   2.349
37728SOL     OW15190   8.814   9.796   3.364
37728SOL    HW115191   8.794   9.714   3.409
37728SOL    HW215192   8.910   9.802   3.367
37729SOL     OW15193   9.489   2.126   0.337
37729SOL    HW115194   9.473   2.220   0.342
37729SOL    HW215195   9.407   2.089   0.303
37730SOL     OW15196   4.446   7.562   4.003
37730SOL    HW115197   4.354   7.539   4.015
37730SOL    HW215198   4.458   7.642   4.053
37731SOL     OW15199   8.424   1.387   3.735
37731SOL    HW115200   8.426   1.340   3.818
37731SOL    HW215201   8.515   1.383   3.703
37732SOL     OW15202   5.368   4.768   8.634
37732SOL    HW115203   5.419   4.845   8.656
37732SOL    HW215204   5.375   4.761   8.538
37733SOL     OW15205   3.055   0.453   9.266
37733SOL    HW115206   2.975   0.401   9.275
37733SOL    HW215207   3.026   0.543   9.275
37734SOL     OW15208   1.198   8.367   8.682
37734SOL    HW115209   1.227   8.313   8.755
37734SOL    HW215210   1.108   8.339   8.666
37735SOL     OW15211  10.646   6.779   1.859
37735SOL    HW115212  10.635   6.724   1.936
37735SOL    HW215213  10.601   6.860   1.881
37736SOL     OW15214   6.623   2.567   1.954
37736SOL    HW115215   6.607   2.486   1.905
37736SOL    HW215216   6.579   2.635   1.903
37737SOL     OW15217   6.268   2.588   4.445
37737SOL    HW115218   6.349   2.538   4.459
37737SOL    HW215219   6.286   2.674   4.482
37738SOL     OW15220   1.576   2.679   7.616
37738SOL    HW115221   1.539   2.608   7.563
37738SOL    HW215222   1.500   2.722   7.654
37739SOL     OW15223  11.047  10.607   4.850
37739SOL    HW115224  11.089  10.526   4.879
37739SOL    HW215225  10.997  10.638   4.926
37740SOL     OW15226   7.751   8.425   5.002
37740SOL    HW115227   7.807   8.401   5.075
37740SOL    HW215228   7.669   8.454   5.042
37741SOL     OW15229   9.724   6.008   5.057
37741SOL    HW115230   9.687   6.006   5.145
37741SOL    HW215231   9.788   5.937   5.056
37742SOL     OW15232   1.842  10.658   4.620
37742SOL    HW115233   1.776  10.718   4.655
37742SOL    HW215234   1.924  10.683   4.663
37743SOL     OW15235   9.329   2.423   5.590
37743SOL    HW115236   9.420   2.405   5.612
37743SOL    HW215237   9.331   2.509   5.548
37744SOL     OW15238   9.240   1.743   3.766
37744SOL    HW115239   9.305   1.673   3.757
37744SOL    HW215240   9.290   1.823   3.753
37745SOL     OW15241  10.492   5.275   8.223
37745SOL    HW115242  10.555   5.209   8.194
37745SOL    HW215243  10.429   5.226   8.276
37746SOL     OW15244   4.481   2.809   3.785
37746SOL    HW115245   4.511   2.720   3.805
37746SOL    HW215246   4.550   2.846   3.730
37747SOL     OW15247   7.921   9.795  11.061
37747SOL    HW115248   7.916   9.758  10.972
37747SOL    HW215249   7.863   9.739  11.113
37748SOL     OW15250   2.457   3.653   6.209
37748SOL    HW115251   2.526   3.670   6.144
37748SOL    HW215252   2.385   3.617   6.157
37749SOL     OW15253   1.160   0.516   3.406
37749SOL    HW115254   1.106   0.437   3.416
37749SOL    HW215255   1.229   0.490   3.345
37750SOL     OW15256   8.546   7.749   6.483
37750SOL    HW115257   8.592   7.817   6.434
37750SOL    HW215258   8.609   7.677   6.489
37751SOL     OW15259   0.405  10.887   8.630
37751SOL    HW115260   0.310  10.885   8.617
37751SOL    HW215261   0.429  10.980   8.625
37752SOL     OW15262   0.770   9.456   5.759
37752SOL    HW115263   0.738   9.431   5.845
37752SOL    HW215264   0.700   9.431   5.699
37753SOL     OW15265  10.012   6.483   2.841
37753SOL    HW115266   9.984   6.392   2.829
37753SOL    HW215267   9.945   6.522   2.897
37754SOL     OW15268   2.331   1.325   8.702
37754SOL    HW115269   2.326   1.412   8.663
37754SOL    HW215270   2.422   1.317   8.732
37755SOL     OW15271   0.977   3.641   1.733
37755SOL    HW115272   0.975   3.681   1.820
37755SOL    HW215273   1.064   3.662   1.699
37756SOL     OW15274   3.250   3.328   3.313
37756SOL    HW115275   3.247   3.253   3.372
37756SOL    HW215276   3.309   3.300   3.242
37757SOL     OW15277   4.894   1.419   6.357
37757SOL    HW115278   4.982   1.384   6.373
37757SOL    HW215279   4.865   1.450   6.442
37758SOL     OW15280   3.053   5.957   3.718
37758SOL    HW115281   3.131   5.903   3.704
37758SOL    HW215282   3.009   5.958   3.633
37759SOL     OW15283   7.194   7.349   6.176
37759SOL    HW115284   7.198   7.303   6.260
37759SOL    HW215285   7.256   7.421   6.185
37760SOL     OW15286   6.172   0.361   1.947
37760SOL    HW115287   6.236   0.295   1.920
37760SOL    HW215288   6.089   0.314   1.948
37761SOL     OW15289   0.467   2.390   5.237
37761SOL    HW115290   0.421   2.386   5.153
37761SOL    HW215291   0.502   2.479   5.241
37762SOL     OW15292   8.839  10.861   9.799
37762SOL    HW115293   8.761  10.872   9.853
37762SOL    HW215294   8.805  10.851   9.710
37763SOL     OW15295   0.203   2.701   0.666
37763SOL    HW115296   0.202   2.715   0.760
37763SOL    HW215297   0.263   2.627   0.653
37764SOL     OW15298   2.562   8.867   7.627
37764SOL    HW115299   2.640   8.819   7.597
37764SOL    HW215300   2.515   8.889   7.546
37765SOL     OW15301   1.871   7.745   2.542
37765SOL    HW115302   1.812   7.789   2.481
37765SOL    HW215303   1.932   7.813   2.570
37766SOL     OW15304   5.947   1.862   3.516
37766SOL    HW115305   5.962   1.805   3.591
37766SOL    HW215306   5.973   1.949   3.546
37767SOL     OW15307   8.276   2.359   3.567
37767SOL    HW115308   8.183   2.356   3.543
37767SOL    HW215309   8.280   2.421   3.640
37768SOL     OW15310  10.570   1.008  10.635
37768SOL    HW115311  10.496   1.033  10.579
37768SOL    HW215312  10.646   1.052  10.596
37769SOL     OW15313   3.174   4.884   8.011
37769SOL    HW115314   3.215   4.891   8.097
37769SOL    HW215315   3.080   4.891   8.027
37770SOL     OW15316   2.627   2.984   1.873
37770SOL    HW115317   2.681   3.027   1.806
37770SOL    HW215318   2.540   3.021   1.861
37771SOL     OW15319   2.640   1.268   3.468
37771SOL    HW115320   2.621   1.347   3.418
37771SOL    HW215321   2.736   1.260   3.465
37772SOL     OW15322  11.028   7.321   3.760
37772SOL    HW115323  11.036   7.249   3.697
37772SOL    HW215324  10.955   7.295   3.816
37773SOL     OW15325   8.799   6.434   4.143
37773SOL    HW115326   8.852   6.464   4.216
37773SOL    HW215327   8.813   6.339   4.141
37774SOL     OW15328   2.782  10.563   8.678
37774SOL    HW115329   2.737  10.561   8.762
37774SOL    HW215330   2.789  10.656   8.656
37775SOL     OW15331   0.300   1.460   7.108
37775SOL    HW115332   0.363   1.526   7.137
37775SOL    HW215333   0.354   1.386   7.079
37776SOL     OW15334  10.871   7.913   1.362
37776SOL    HW115335  10.833   7.984   1.413
37776SOL    HW215336  10.828   7.918   1.277
37777SOL     OW15337   0.166   3.633   4.651
37777SOL    HW115338   0.165   3.648   4.745
37777SOL    HW215339   0.095   3.570   4.636
37778SOL     OW15340   3.523   3.796   8.610
37778SOL    HW115341   3.470   3.830   8.682
37778SOL    HW215342   3.607   3.773   8.650
37779SOL     OW15343   0.278   0.759   3.112
37779SOL    HW115344   0.328   0.839   3.128
37779SOL    HW215345   0.231   0.743   3.193
37780SOL     OW15346   8.372   2.307  10.288
37780SOL    HW115347   8.279   2.305  10.312
37780SOL    HW215348   8.419   2.307  10.371
37781SOL     OW15349   8.237   0.329   4.287
37781SOL    HW115350   8.178   0.404   4.286
37781SOL    HW215351   8.295   0.343   4.211
37782SOL     OW15352   4.189  10.167   8.077
37782SOL    HW115353   4.280  10.181   8.102
37782SOL    HW215354   4.171  10.076   8.101
37783SOL     OW15355   0.379   1.765   8.984
37783SOL    HW115356   0.317   1.788   9.053
37783SOL    HW215357   0.349   1.814   8.907
37784SOL     OW15358   8.056   3.877  10.468
37784SOL    HW115359   8.049   3.803  10.528
37784SOL    HW215360   7.973   3.924  10.478
37785SOL     OW15361   9.637   6.276   3.556
37785SOL    HW115362   9.613   6.203   3.613
37785SOL    HW215363   9.715   6.314   3.597
37786SOL     OW15364   2.854   7.371   6.621
37786SOL    HW115365   2.827   7.386   6.530
37786SOL    HW215366   2.948   7.388   6.621
37787SOL     OW15367   5.703  10.048   2.652
37787SOL    HW115368   5.662  10.127   2.618
37787SOL    HW215369   5.794  10.054   2.623
37788SOL     OW15370   1.034   1.489   1.590
37788SOL    HW115371   1.021   1.448   1.504
37788SOL    HW215372   1.121   1.459   1.618
37789SOL     OW15373   1.788   3.576  10.347
37789SOL    HW115374   1.876   3.601  10.318
37789SOL    HW215375   1.778   3.486  10.316
37790SOL     OW15376   9.313   9.294   6.139
37790SOL    HW115377   9.334   9.242   6.061
37790SOL    HW215378   9.349   9.243   6.212
37791SOL     OW15379   0.269   6.702   9.250
37791SOL    HW115380   0.352   6.746   9.236
37791SOL    HW215381   0.292   6.621   9.295
37792SOL     OW15382   5.312   3.466  10.994
37792SOL    HW115383   5.226   3.504  11.013
37792SOL    HW215384   5.350   3.447  11.079
37793SOL     OW15385   1.407  10.547   7.152
37793SOL    HW115386   1.359  10.593   7.083
37793SOL    HW215387   1.384  10.593   7.232
37794SOL     OW15388   7.449   4.324   0.742
37794SOL    HW115389   7.538   4.316   0.706
37794SOL    HW215390   7.405   4.385   0.683
37795SOL     OW15391   4.536   1.560   2.665
37795SOL    HW115392   4.505   1.507   2.738
37795SOL    HW215393   4.615   1.515   2.635
37796SOL     OW15394   0.345   7.382   5.320
37796SOL    HW115395   0.418   7.336   5.362
37796SOL    HW215396   0.266   7.339   5.354
37797SOL     OW15397   8.003   5.061   7.120
37797SOL    HW115398   8.013   5.118   7.044
37797SOL    HW215399   7.909   5.061   7.138
37798SOL     OW15400   7.783   2.448   1.905
37798SOL    HW115401   7.832   2.530   1.899
37798SOL    HW215402   7.713   2.466   1.968
37799SOL     OW15403   3.278   2.671   1.535
37799SOL    HW115404   3.264   2.578   1.516
37799SOL    HW215405   3.219   2.717   1.475
37800SOL     OW15406   6.470   0.208   6.957
37800SOL    HW115407   6.532   0.176   6.891
37800SOL    HW215408   6.387   0.214   6.910
37801SOL     OW15409   9.230   9.300  10.629
37801SOL    HW115410   9.301   9.322  10.689
37801SOL    HW215411   9.274   9.260  10.554
37802SOL     OW15412   1.678   0.308   4.596
37802SOL    HW115413   1.733   0.384   4.578
37802SOL    HW215414   1.718   0.237   4.546
37803SOL     OW15415   7.841   6.954   1.246
37803SOL    HW115416   7.915   7.014   1.253
37803SOL    HW215417   7.775   7.001   1.195
37804SOL     OW15418   7.864   0.168   7.997
37804SOL    HW115419   7.781   0.209   8.020
37804SOL    HW215420   7.931   0.230   8.025
37805SOL     OW15421   1.290   9.280   0.877
37805SOL    HW115422   1.280   9.186   0.893
37805SOL    HW215423   1.256   9.322   0.956
37806SOL     OW15424   1.036   5.237   3.422
37806SOL    HW115425   1.035   5.174   3.494
37806SOL    HW215426   0.944   5.251   3.401
37807SOL     OW15427   8.909   1.026   5.205
37807SOL    HW115428   8.854   0.948   5.198
37807SOL    HW215429   8.861   1.085   5.262
37808SOL     OW15430   0.186   1.317   6.130
37808SOL    HW115431   0.236   1.263   6.191
37808SOL    HW215432   0.104   1.336   6.175
37809SOL     OW15433   9.728   1.319   7.513
37809SOL    HW115434   9.710   1.332   7.606
37809SOL    HW215435   9.800   1.255   7.511
37810SOL     OW15436   9.839   3.903   1.515
37810SOL    HW115437   9.909   3.905   1.450
37810SOL    HW215438   9.857   3.824   1.567
37811SOL     OW15439  10.958   4.569   0.471
37811SOL    HW115440  10.933   4.560   0.563
37811SOL    HW215441  10.900   4.637   0.437
37812SOL     OW15442  11.051   3.776  10.514
37812SOL    HW115443  11.068   3.870  10.507
37812SOL    HW215444  10.987   3.758  10.445
37813SOL     OW15445   9.728   1.334   7.827
37813SOL    HW115446   9.641   1.323   7.788
37813SOL    HW215447   9.714   1.323   7.921
37814SOL     OW15448   1.285  10.860   3.719
37814SOL    HW115449   1.229  10.918   3.667
37814SOL    HW215450   1.227  10.789   3.747
37815SOL     OW15451   6.436   9.019   3.676
37815SOL    HW115452   6.351   9.001   3.635
37815SOL    HW215453   6.457   9.109   3.651
37816SOL     OW15454  10.133   2.554   3.747
37816SOL    HW115455  10.095   2.485   3.802
37816SOL    HW215456  10.190   2.603   3.806
37817SOL     OW15457   5.689  10.988   7.320
37817SOL    HW115458   5.708  10.969   7.412
37817SOL    HW215459   5.737  11.069   7.302
37818SOL     OW15460   4.006   7.356   3.779
37818SOL    HW115461   3.981   7.266   3.801
37818SOL    HW215462   3.925   7.406   3.784
37819SOL     OW15463   1.789   1.916  10.025
37819SOL    HW115464   1.879   1.904  10.054
37819SOL    HW215465   1.737   1.910  10.105
37820SOL     OW15466   1.621   3.745   5.436
37820SOL    HW115467   1.661   3.680   5.378
37820SOL    HW215468   1.687   3.813   5.444
37821SOL     OW15469   1.939   8.821   3.633
37821SOL    HW115470   2.001   8.873   3.582
37821SOL    HW215471   1.876   8.884   3.667
37822SOL     OW15472   2.278   2.149   3.790
37822SOL    HW115473   2.238   2.114   3.869
37822SOL    HW215474   2.368   2.117   3.792
37823SOL     OW15475   2.040   5.305   7.355
37823SOL    HW115476   2.042   5.350   7.270
37823SOL    HW215477   2.014   5.372   7.418
37824SOL     OW15478  10.610   7.921   0.514
37824SOL    HW115479  10.530   7.971   0.503
37824SOL    HW215480  10.610   7.896   0.606
37825SOL     OW15481  10.316   8.975   7.252
37825SOL    HW115482  10.272   8.890   7.256
37825SOL    HW215483  10.276   9.026   7.322
37826SOL     OW15484   6.767   6.749   8.846
37826SOL    HW115485   6.787   6.674   8.902
37826SOL    HW215486   6.672   6.745   8.834
37827SOL     OW15487   6.486   1.746   4.628
37827SOL    HW115488   6.522   1.666   4.589
37827SOL    HW215489   6.396   1.723   4.651
37828SOL     OW15490  10.742   5.912   4.126
37828SOL    HW115491  10.703   5.987   4.170
37828SOL    HW215492  10.675   5.844   4.131
37829SOL     OW15493   3.527  10.988   8.786
37829SOL    HW115494   3.518  11.038   8.867
37829SOL    HW215495   3.555  10.901   8.814
37830SOL     OW15496   5.881   2.492   3.202
37830SOL    HW115497   5.961   2.487   3.255
37830SOL    HW215498   5.900   2.558   3.135
37831SOL     OW15499   7.867   2.723   1.864
37831SOL    HW115500   7.784   2.741   1.819
37831SOL    HW215501   7.934   2.760   1.806
37832SOL     OW15502   1.787   4.346   2.462
37832SOL    HW115503   1.749   4.357   2.549
37832SOL    HW215504   1.773   4.429   2.418
37833SOL     OW15505   9.156   2.880   5.605
37833SOL    HW115506   9.192   2.939   5.671
37833SOL    HW215507   9.066   2.863   5.634
37834SOL     OW15508   9.744   8.504   6.269
37834SOL    HW115509   9.830   8.465   6.250
37834SOL    HW215510   9.747   8.525   6.362
37835SOL     OW15511   8.058   5.889   5.658
37835SOL    HW115512   8.028   5.798   5.656
37835SOL    HW215513   8.112   5.895   5.737
37836SOL     OW15514   8.282  10.606   2.533
37836SOL    HW115515   8.285  10.521   2.577
37836SOL    HW215516   8.214  10.655   2.579
37837SOL     OW15517   0.696   4.840   7.440
37837SOL    HW115518   0.621   4.816   7.494
37837SOL    HW215519   0.682   4.793   7.357
37838SOL     OW15520   9.631   5.487   6.014
37838SOL    HW115521   9.599   5.564   6.059
37838SOL    HW215522   9.702   5.454   6.069
37839SOL     OW15523   2.095   4.909   8.951
37839SOL    HW115524   2.095   4.884   9.043
37839SOL    HW215525   2.021   4.968   8.942
37840SOL     OW15526   5.405  10.466   5.428
37840SOL    HW115527   5.321  10.422   5.441
37840SOL    HW215528   5.388  10.529   5.358
37841SOL     OW15529   1.079   1.696   1.311
37841SOL    HW115530   1.025   1.632   1.265
37841SOL    HW215531   1.028   1.719   1.388
37842SOL     OW15532   9.289   2.183   6.310
37842SOL    HW115533   9.229   2.110   6.293
37842SOL    HW215534   9.331   2.200   6.225
37843SOL     OW15535   2.592   5.766   4.091
37843SOL    HW115536   2.647   5.839   4.064
37843SOL    HW215537   2.502   5.799   4.084
37844SOL     OW15538   9.274   5.999   4.559
37844SOL    HW115539   9.272   5.903   4.565
37844SOL    HW215540   9.364   6.022   4.582
37845SOL     OW15541   9.451   7.388   8.950
37845SOL    HW115542   9.398   7.448   8.898
37845SOL    HW215543   9.540   7.421   8.941
37846SOL     OW15544   1.957   1.012   2.949
37846SOL    HW115545   1.966   0.978   3.038
37846SOL    HW215546   1.939   0.934   2.896
37847SOL     OW15547   5.345  10.658   2.624
37847SOL    HW115548   5.345  10.593   2.694
37847SOL    HW215549   5.361  10.741   2.668
37848SOL     OW15550   6.278  10.784   3.310
37848SOL    HW115551   6.238  10.799   3.395
37848SOL    HW215552   6.342  10.854   3.301
37849SOL     OW15553   0.166   3.364   4.025
37849SOL    HW115554   0.173   3.396   4.115
37849SOL    HW215555   0.156   3.443   3.972
37850SOL     OW15556   0.454   3.783   0.774
37850SOL    HW115557   0.374   3.736   0.796
37850SOL    HW215558   0.431   3.875   0.784
37851SOL     OW15559   1.978  10.223   1.277
37851SOL    HW115560   1.970  10.176   1.360
37851SOL    HW215561   2.062  10.194   1.241
37852SOL     OW15562   0.513   5.614   1.643
37852SOL    HW115563   0.476   5.644   1.726
37852SOL    HW215564   0.601   5.582   1.665
37853SOL     OW15565  10.600  10.901   5.156
37853SOL    HW115566  10.528  10.964   5.154
37853SOL    HW215567  10.567  10.825   5.108
37854SOL     OW15568   5.973   5.754   2.476
37854SOL    HW115569   5.969   5.693   2.550
37854SOL    HW215570   6.041   5.717   2.418
37855SOL     OW15571   0.832   5.066   5.722
37855SOL    HW115572   0.746   5.081   5.683
37855SOL    HW215573   0.840   4.970   5.727
37856SOL     OW15574   6.476   4.637  10.169
37856SOL    HW115575   6.436   4.668  10.088
37856SOL    HW215576   6.437   4.691  10.237
37857SOL     OW15577   5.557   9.838   2.237
37857SOL    HW115578   5.568   9.907   2.172
37857SOL    HW215579   5.646   9.819   2.267
37858SOL     OW15580   5.324   5.511   0.861
37858SOL    HW115581   5.254   5.446   0.870
37858SOL    HW215582   5.389   5.485   0.926
37859SOL     OW15583   2.308   3.847   5.829
37859SOL    HW115584   2.251   3.800   5.890
37859SOL    HW215585   2.329   3.782   5.761
37860SOL     OW15586   4.038   3.009   2.195
37860SOL    HW115587   4.032   3.098   2.229
37860SOL    HW215588   4.125   2.979   2.221
37861SOL     OW15589   8.881   1.904   9.071
37861SOL    HW115590   8.914   1.849   8.999
37861SOL    HW215591   8.829   1.844   9.125
37862SOL     OW15592   9.324   0.047   2.193
37862SOL    HW115593   9.279   0.088   2.267
37862SOL    HW215594   9.324   0.114   2.124
37863SOL     OW15595   8.523   7.396   7.289
37863SOL    HW115596   8.537   7.360   7.201
37863SOL    HW215597   8.556   7.328   7.347
37864SOL     OW15598   3.184   2.168   1.483
37864SOL    HW115599   3.095   2.180   1.515
37864SOL    HW215600   3.212   2.084   1.520
37865SOL     OW15601   8.407   7.063  10.033
37865SOL    HW115602   8.339   7.099   9.976
37865SOL    HW215603   8.451   6.998   9.978
37866SOL     OW15604   9.949   2.303   9.356
37866SOL    HW115605   9.856   2.309   9.377
37866SOL    HW215606   9.981   2.393   9.364
37867SOL     OW15607   0.664   9.936   2.110
37867SOL    HW115608   0.668  10.031   2.105
37867SOL    HW215609   0.752   9.907   2.087
37868SOL     OW15610   7.084   9.038   7.094
37868SOL    HW115611   7.009   9.074   7.140
37868SOL    HW215612   7.146   9.015   7.163
37869SOL     OW15613   0.439   8.048  11.029
37869SOL    HW115614   0.414   8.111  10.962
37869SOL    HW215615   0.465   8.101  11.104
37870SOL     OW15616   5.139   8.527   0.805
37870SOL    HW115617   5.096   8.604   0.770
37870SOL    HW215618   5.116   8.526   0.898
37871SOL     OW15619   6.075   5.931   7.023
37871SOL    HW115620   5.983   5.952   7.041
37871SOL    HW215621   6.090   5.963   6.934
37872SOL     OW15622   0.668   6.962   6.249
37872SOL    HW115623   0.739   6.964   6.185
37872SOL    HW215624   0.711   6.938   6.331
37873SOL     OW15625   2.681   4.198   4.578
37873SOL    HW115626   2.678   4.222   4.485
37873SOL    HW215627   2.691   4.103   4.577
37874SOL     OW15628   6.827   5.615   9.969
37874SOL    HW115629   6.758   5.554   9.944
37874SOL    HW215630   6.794   5.658  10.048
37875SOL     OW15631   9.233   3.454   5.569
37875SOL    HW115632   9.285   3.531   5.546
37875SOL    HW215633   9.219   3.409   5.485
37876SOL     OW15634  10.849  10.624   3.987
37876SOL    HW115635  10.759  10.604   4.014
37876SOL    HW215636  10.865  10.712   4.020
37877SOL     OW15637   0.521   0.896   7.895
37877SOL    HW115638   0.531   0.948   7.815
37877SOL    HW215639   0.446   0.934   7.940
37878SOL     OW15640   9.711   3.531   0.733
37878SOL    HW115641   9.704   3.602   0.796
37878SOL    HW215642   9.641   3.470   0.757
37879SOL     OW15643  10.654   3.660   2.568
37879SOL    HW115644  10.634   3.575   2.527
37879SOL    HW215645  10.690   3.712   2.496
37880SOL     OW15646  10.321   8.114  10.353
37880SOL    HW115647  10.295   8.059  10.427
37880SOL    HW215648  10.251   8.102  10.288
37881SOL     OW15649   8.769   9.264   3.197
37881SOL    HW115650   8.721   9.182   3.185
37881SOL    HW215651   8.702   9.332   3.196
37882SOL     OW15652   7.327   2.984   1.561
37882SOL    HW115653   7.418   2.964   1.537
37882SOL    HW215654   7.328   3.077   1.584
37883SOL     OW15655   9.305   1.337   5.847
37883SOL    HW115656   9.377   1.374   5.897
37883SOL    HW215657   9.254   1.287   5.911
37884SOL     OW15658   8.059   3.463   9.084
37884SOL    HW115659   7.986   3.407   9.057
37884SOL    HW215660   8.047   3.543   9.034
37885SOL     OW15661   6.376   8.120   0.587
37885SOL    HW115662   6.288   8.082   0.592
37885SOL    HW215663   6.427   8.054   0.539
37886SOL     OW15664   0.149  10.473   8.281
37886SOL    HW115665   0.146  10.471   8.376
37886SOL    HW215666   0.107  10.392   8.254
37887SOL     OW15667   0.538   3.486   5.263
37887SOL    HW115668   0.552   3.580   5.274
37887SOL    HW215669   0.498   3.478   5.176
37888SOL     OW15670   2.049   5.270   2.759
37888SOL    HW115671   2.025   5.354   2.720
37888SOL    HW215672   1.968   5.219   2.758
37889SOL     OW15673   7.963  10.897   4.253
37889SOL    HW115674   8.005  10.973   4.212
37889SOL    HW215675   7.921  10.851   4.180
37890SOL     OW15676   1.357   2.282   6.375
37890SOL    HW115677   1.289   2.349   6.372
37890SOL    HW215678   1.309   2.199   6.369
37891SOL     OW15679   9.668   6.430  10.387
37891SOL    HW115680   9.741   6.441  10.448
37891SOL    HW215681   9.601   6.384  10.437
37892SOL     OW15682   9.064   8.972   5.360
37892SOL    HW115683   9.129   8.924   5.411
37892SOL    HW215684   9.091   9.063   5.366
37893SOL     OW15685   8.153   0.715   2.486
37893SOL    HW115686   8.206   0.794   2.496
37893SOL    HW215687   8.214   0.649   2.451
37894SOL     OW15688   8.473   3.335   4.052
37894SOL    HW115689   8.515   3.406   4.004
37894SOL    HW215690   8.387   3.325   4.011
37895SOL     OW15691   4.821   1.371   1.038
37895SOL    HW115692   4.776   1.365   1.122
37895SOL    HW215693   4.842   1.280   1.016
37896SOL     OW15694   6.339   2.542   8.780
37896SOL    HW115695   6.364   2.634   8.783
37896SOL    HW215696   6.303   2.530   8.692
37897SOL     OW15697   9.931   1.782   7.810
37897SOL    HW115698   9.842   1.808   7.834
37897SOL    HW215699   9.986   1.816   7.880
37898SOL     OW15700   8.600   0.787   6.408
37898SOL    HW115701   8.552   0.828   6.336
37898SOL    HW215702   8.532   0.754   6.467
37899SOL     OW15703   9.045   9.687   1.507
37899SOL    HW115704   9.029   9.599   1.472
37899SOL    HW215705   8.978   9.741   1.466
37900SOL     OW15706   0.069   2.819   2.087
37900SOL    HW115707   0.101   2.776   2.166
37900SOL    HW215708  -0.024   2.795   2.083
37901SOL     OW15709   6.708   1.933   7.234
37901SOL    HW115710   6.647   1.903   7.301
37901SOL    HW215711   6.785   1.963   7.283
37902SOL     OW15712   5.900   9.116   4.329
37902SOL    HW115713   5.917   9.024   4.308
37902SOL    HW215714   5.873   9.155   4.246
37903SOL     OW15715   6.219   5.077   1.243
37903SOL    HW115716   6.163   5.000   1.230
37903SOL    HW215717   6.277   5.076   1.167
37904SOL     OW15718   4.423   1.103   9.628
37904SOL    HW115719   4.483   1.048   9.576
37904SOL    HW215720   4.432   1.069   9.717
37905SOL     OW15721  10.516   2.390  10.086
37905SOL    HW115722  10.500   2.296  10.097
37905SOL    HW215723  10.496   2.428  10.171
37906SOL     OW15724   1.497   6.971   6.853
37906SOL    HW115725   1.476   6.879   6.871
37906SOL    HW215726   1.591   6.971   6.833
37907SOL     OW15727   9.405   0.850   8.053
37907SOL    HW115728   9.441   0.812   7.972
37907SOL    HW215729   9.338   0.787   8.081
37908SOL     OW15730   8.942  10.341   5.337
37908SOL    HW115731   8.975  10.367   5.251
37908SOL    HW215732   8.857  10.384   5.344
37909SOL     OW15733   7.807   1.431   3.719
37909SOL    HW115734   7.893   1.462   3.690
37909SOL    HW215735   7.801   1.457   3.811
37910SOL     OW15736   8.062  10.522   3.105
37910SOL    HW115737   8.062  10.551   3.196
37910SOL    HW215738   7.983  10.468   3.097
37911SOL     OW15739   3.920  10.832   4.880
37911SOL    HW115740   3.999  10.805   4.927
37911SOL    HW215741   3.902  10.759   4.820
37912SOL     OW15742   0.680   5.613   7.741
37912SOL    HW115743   0.600   5.657   7.712
37912SOL    HW215744   0.695   5.646   7.829
37913SOL     OW15745   8.480   1.039   5.622
37913SOL    HW115746   8.529   0.959   5.600
37913SOL    HW215747   8.548   1.105   5.638
37914SOL     OW15748  10.242   9.596   2.531
37914SOL    HW115749  10.251   9.501   2.542
37914SOL    HW215750  10.150   9.609   2.509
37915SOL     OW15751   9.008   1.391   5.821
37915SOL    HW115752   8.989   1.300   5.845
37915SOL    HW215753   9.079   1.417   5.880
37916SOL     OW15754   8.901   3.159   4.497
37916SOL    HW115755   8.994   3.180   4.490
37916SOL    HW215756   8.899   3.065   4.518
37917SOL     OW15757   7.723   1.062   3.804
37917SOL    HW115758   7.796   1.079   3.745
37917SOL    HW215759   7.690   1.148   3.828
37918SOL     OW15760   9.194   3.494   7.810
37918SOL    HW115761   9.127   3.537   7.757
37918SOL    HW215762   9.199   3.546   7.890
37919SOL     OW15763   8.370   2.903   7.233
37919SOL    HW115764   8.339   2.984   7.193
37919SOL    HW215765   8.408   2.930   7.316
37920SOL     OW15766  10.517   1.968  10.991
37920SOL    HW115767  10.515   1.938  10.900
37920SOL    HW215768  10.608   1.956  11.018
37921SOL     OW15769   2.928   8.615  10.352
37921SOL    HW115770   2.918   8.552  10.280
37921SOL    HW215771   2.895   8.569  10.429
37922SOL     OW15772   8.056   7.908   7.126
37922SOL    HW115773   8.023   7.862   7.048
37922SOL    HW215774   8.072   7.838   7.190
37923SOL     OW15775   5.134   7.082   1.763
37923SOL    HW115776   5.118   6.993   1.729
37923SOL    HW215777   5.125   7.138   1.686
37924SOL     OW15778   1.683   1.477   2.431
37924SOL    HW115779   1.700   1.544   2.365
37924SOL    HW215780   1.593   1.493   2.459
37925SOL     OW15781   3.253   5.290   3.454
37925SOL    HW115782   3.258   5.383   3.432
37925SOL    HW215783   3.254   5.245   3.369
37926SOL     OW15784   0.433   9.401   9.428
37926SOL    HW115785   0.341   9.418   9.409
37926SOL    HW215786   0.476   9.485   9.415
37927SOL     OW15787   8.319   6.842   9.485
37927SOL    HW115788   8.393   6.788   9.513
37927SOL    HW215789   8.342   6.930   9.513
37928SOL     OW15790   2.074   7.613   5.557
37928SOL    HW115791   2.061   7.650   5.644
37928SOL    HW215792   2.118   7.529   5.572
37929SOL     OW15793   1.108   0.770   9.185
37929SOL    HW115794   1.131   0.715   9.260
37929SOL    HW215795   1.020   0.801   9.204
37930SOL     OW15796   8.504   3.939   7.205
37930SOL    HW115797   8.534   3.928   7.114
37930SOL    HW215798   8.452   3.860   7.222
37931SOL     OW15799   2.120  10.312  10.193
37931SOL    HW115800   2.197  10.289  10.245
37931SOL    HW215801   2.151  10.309  10.102
37932SOL     OW15802  10.414   4.843   4.164
37932SOL    HW115803  10.494   4.856   4.113
37932SOL    HW215804  10.428   4.894   4.244
37933SOL     OW15805   1.164   4.500   7.998
37933SOL    HW115806   1.170   4.595   8.009
37933SOL    HW215807   1.195   4.464   8.081
37934SOL     OW15808   9.916   6.024   8.448
37934SOL    HW115809   9.874   5.950   8.493
37934SOL    HW215810   9.910   6.097   8.510
37935SOL     OW15811   1.184   7.197   2.487
37935SOL    HW115812   1.111   7.176   2.545
37935SOL    HW215813   1.202   7.289   2.503
37936SOL     OW15814  11.033   2.144   4.244
37936SOL    HW115815  10.984   2.120   4.323
37936SOL    HW215816  10.986   2.101   4.172
37937SOL     OW15817   6.388   9.740   0.202
37937SOL    HW115818   6.327   9.776   0.266
37937SOL    HW215819   6.396   9.647   0.225
37938SOL     OW15820   9.642   2.811   9.761
37938SOL    HW115821   9.626   2.875   9.829
37938SOL    HW215822   9.735   2.791   9.768
37939SOL     OW15823   0.018   1.734   7.386
37939SOL    HW115824  -0.001   1.653   7.339
37939SOL    HW215825  -0.064   1.783   7.382
37940SOL     OW15826   7.189   5.765   9.627
37940SOL    HW115827   7.175   5.675   9.597
37940SOL    HW215828   7.102   5.804   9.626
37941SOL     OW15829   8.880   2.049   7.260
37941SOL    HW115830   8.874   2.121   7.322
37941SOL    HW215831   8.970   2.018   7.268
37942SOL     OW15832  10.629  10.633   2.826
37942SOL    HW115833  10.606  10.629   2.733
37942SOL    HW215834  10.558  10.683   2.866
37943SOL     OW15835  10.894   3.399   2.398
37943SOL    HW115836  10.856   3.328   2.450
37943SOL    HW215837  10.824   3.463   2.388
37944SOL     OW15838   7.137   9.859   2.144
37944SOL    HW115839   7.141   9.868   2.239
37944SOL    HW215840   7.159   9.946   2.111
37945SOL     OW15841  10.561   1.081   3.257
37945SOL    HW115842  10.529   1.076   3.347
37945SOL    HW215843  10.560   1.174   3.235
37946SOL     OW15844   3.025   3.623   0.923
37946SOL    HW115845   3.092   3.621   0.991
37946SOL    HW215846   3.069   3.586   0.846
37947SOL     OW15847   2.487   0.010   2.679
37947SOL    HW115848   2.438   0.080   2.721
37947SOL    HW215849   2.484   0.031   2.585
37948SOL     OW15850   5.822   4.529   7.897
37948SOL    HW115851   5.750   4.586   7.922
37948SOL    HW215852   5.875   4.582   7.837
37949SOL     OW15853   7.974   9.573   3.790
37949SOL    HW115854   8.035   9.616   3.850
37949SOL    HW215855   8.019   9.575   3.705
37950SOL     OW15856   4.984  10.153   7.718
37950SOL    HW115857   5.039  10.192   7.650
37950SOL    HW215858   4.913  10.110   7.670
37951SOL     OW15859   0.878   1.447   3.579
37951SOL    HW115860   0.808   1.459   3.643
37951SOL    HW215861   0.867   1.519   3.517
37952SOL     OW15862   2.443   7.175   6.942
37952SOL    HW115863   2.478   7.127   6.867
37952SOL    HW215864   2.521   7.206   6.989
37953SOL     OW15865   8.482   8.574   5.008
37953SOL    HW115866   8.551   8.638   5.024
37953SOL    HW215867   8.433   8.610   4.934
37954SOL     OW15868   0.609   3.222   2.883
37954SOL    HW115869   0.670   3.210   2.956
37954SOL    HW215870   0.527   3.250   2.924
37955SOL     OW15871   1.744   6.672   9.998
37955SOL    HW115872   1.743   6.698  10.090
37955SOL    HW215873   1.699   6.743   9.952
37956SOL     OW15874  10.671   6.765   2.963
37956SOL    HW115875  10.690   6.699   3.030
37956SOL    HW215876  10.576   6.763   2.954
37957SOL     OW15877   8.051   4.236   1.407
37957SOL    HW115878   7.966   4.217   1.367
37957SOL    HW215879   8.033   4.303   1.472
37958SOL     OW15880   0.680   7.059  11.087
37958SOL    HW115881   0.740   7.123  11.049
37958SOL    HW215882   0.700   6.977  11.040
37959SOL     OW15883   9.314   2.500   0.694
37959SOL    HW115884   9.238   2.442   0.696
37959SOL    HW215885   9.346   2.501   0.784
37960SOL     OW15886   0.872   3.836   3.330
37960SOL    HW115887   0.967   3.821   3.331
37960SOL    HW215888   0.861   3.920   3.374
37961SOL     OW15889   0.303   4.024   5.159
37961SOL    HW115890   0.224   4.073   5.135
37961SOL    HW215891   0.277   3.932   5.150
37962SOL     OW15892   2.991   1.433   2.642
37962SOL    HW115893   3.014   1.340   2.633
37962SOL    HW215894   2.901   1.438   2.610
37963SOL     OW15895   0.748   9.102   4.053
37963SOL    HW115896   0.711   9.097   4.141
37963SOL    HW215897   0.672   9.113   3.995
37964SOL     OW15898   3.640   1.609   4.313
37964SOL    HW115899   3.614   1.686   4.363
37964SOL    HW215900   3.641   1.538   4.377
37965SOL     OW15901   8.919   3.383   2.092
37965SOL    HW115902   8.853   3.330   2.047
37965SOL    HW215903   8.943   3.331   2.168
37966SOL     OW15904   8.270  10.876   1.489
37966SOL    HW115905   8.350  10.838   1.452
37966SOL    HW215906   8.260  10.832   1.573
37967SOL     OW15907  10.781   0.862   1.216
37967SOL    HW115908  10.714   0.914   1.260
37967SOL    HW215909  10.858   0.870   1.272
37968SOL     OW15910   9.841   7.274   6.743
37968SOL    HW115911   9.771   7.318   6.695
37968SOL    HW215912   9.796   7.210   6.798
37969SOL     OW15913   5.493   0.537   4.412
37969SOL    HW115914   5.564   0.498   4.360
37969SOL    HW215915   5.533   0.613   4.455
37970SOL     OW15916   0.585   9.372   5.545
37970SOL    HW115917   0.636   9.314   5.489
37970SOL    HW215918   0.498   9.332   5.548
37971SOL     OW15919   8.920   0.731   4.038
37971SOL    HW115920   8.889   0.795   4.102
37971SOL    HW215921   8.882   0.760   3.955
37972SOL     OW15922   3.628   7.116   1.041
37972SOL    HW115923   3.567   7.075   1.103
37972SOL    HW215924   3.622   7.061   0.962
37973SOL     OW15925  10.197   7.929   4.096
37973SOL    HW115926  10.283   7.908   4.132
37973SOL    HW215927  10.215   7.948   4.003
37974SOL     OW15928   9.168   8.064   4.372
37974SOL    HW115929   9.106   8.073   4.300
37974SOL    HW215930   9.245   8.024   4.332
37975SOL     OW15931   4.005   2.143   2.596
37975SOL    HW115932   4.098   2.163   2.588
37975SOL    HW215933   4.002   2.047   2.603
37976SOL     OW15934   6.597   2.093   5.685
37976SOL    HW115935   6.570   2.183   5.669
37976SOL    HW215936   6.621   2.091   5.777
37977SOL     OW15937   5.660   0.354   3.607
37977SOL    HW115938   5.609   0.376   3.529
37977SOL    HW215939   5.742   0.403   3.597
37978SOL     OW15940  10.667   9.532   7.454
37978SOL    HW115941  10.725   9.607   7.467
37978SOL    HW215942  10.579   9.568   7.461
37979SOL     OW15943  10.906   2.347  10.861
37979SOL    HW115944  10.994   2.343  10.898
37979SOL    HW215945  10.909   2.421  10.800
37980SOL     OW15946   7.794  10.778   2.179
37980SOL    HW115947   7.816  10.795   2.087
37980SOL    HW215948   7.830  10.853   2.226
37981SOL     OW15949   8.845   7.109   7.236
37981SOL    HW115950   8.912   7.177   7.227
37981SOL    HW215951   8.775   7.136   7.177
37982SOL     OW15952  10.385   5.647  11.013
37982SOL    HW115953  10.376   5.648  10.917
37982SOL    HW215954  10.427   5.563  11.031
37983SOL     OW15955   7.416   6.915   5.172
37983SOL    HW115956   7.455   6.981   5.229
37983SOL    HW215957   7.484   6.897   5.107
37984SOL     OW15958   9.180   4.288   8.038
37984SOL    HW115959   9.219   4.208   8.000
37984SOL    HW215960   9.089   4.264   8.055
37985SOL     OW15961  10.291   2.775   4.167
37985SOL    HW115962  10.254   2.862   4.175
37985SOL    HW215963  10.334   2.758   4.250
37986SOL     OW15964   9.169   0.446   9.190
37986SOL    HW115965   9.250   0.415   9.148
37986SOL    HW215966   9.137   0.515   9.132
37987SOL     OW15967   7.921   2.122   4.840
37987SOL    HW115968   7.973   2.172   4.777
37987SOL    HW215969   7.986   2.076   4.893
37988SOL     OW15970   3.627   8.463   6.472
37988SOL    HW115971   3.643   8.406   6.547
37988SOL    HW215972   3.701   8.445   6.413
37989SOL     OW15973   8.395  10.997   0.507
37989SOL    HW115974   8.420  11.084   0.537
37989SOL    HW215975   8.305  10.986   0.536
37990SOL     OW15976   4.719   5.295   8.755
37990SOL    HW115977   4.740   5.242   8.832
37990SOL    HW215978   4.639   5.342   8.779
37991SOL     OW15979   5.350   4.708   8.331
37991SOL    HW115980   5.356   4.615   8.352
37991SOL    HW215981   5.286   4.712   8.260
37992SOL     OW15982   9.727   1.468   1.148
37992SOL    HW115983   9.730   1.379   1.113
37992SOL    HW215984   9.737   1.457   1.242
37993SOL     OW15985   7.949   9.133  10.667
37993SOL    HW115986   8.040   9.162  10.666
37993SOL    HW215987   7.901   9.207  10.703
37994SOL     OW15988   2.158   1.614   8.231
37994SOL    HW115989   2.151   1.693   8.178
37994SOL    HW215990   2.097   1.552   8.190
37995SOL     OW15991  10.402   6.506   7.356
37995SOL    HW115992  10.484   6.549   7.380
37995SOL    HW215993  10.427   6.414   7.344
37996SOL     OW15994  10.929   8.914   3.103
37996SOL    HW115995  10.964   8.993   3.143
37996SOL    HW215996  10.837   8.933   3.087
37997SOL     OW15997   2.022   9.676   7.524
37997SOL    HW115998   1.971   9.686   7.604
37997SOL    HW215999   1.958   9.651   7.458
37998SOL     OW16000  10.297   7.912   1.668
37998SOL    HW116001  10.380   7.881   1.632
37998SOL    HW216002  10.278   7.851   1.739
37999SOL     OW16003   0.652   3.652   2.910
37999SOL    HW116004   0.661   3.735   2.956
37999SOL    HW216005   0.742   3.619   2.902
38000SOL     OW16006  10.423  11.086   6.595
38000SOL    HW116007  10.333  11.064   6.618
38000SOL    HW216008  10.443  11.164   6.647
38001SOL     OW16009   9.596   0.711   3.254
38001SOL    HW116010   9.545   0.687   3.176
38001SOL    HW216011   9.663   0.771   3.221
38002SOL     OW16012   2.912  10.314  10.207
38002SOL    HW116013   2.901  10.306  10.112
38002SOL    HW216014   3.003  10.289  10.223
38003SOL     OW16015   8.785   0.972   2.922
38003SOL    HW116016   8.798   0.880   2.945
38003SOL    HW216017   8.732   1.007   2.993
38004SOL     OW16018   9.943   9.239   7.133
38004SOL    HW116019   9.931   9.171   7.199
38004SOL    HW216020  10.029   9.276   7.152
38005SOL     OW16021   9.608  10.920   2.949
38005SOL    HW116022   9.556  10.894   2.873
38005SOL    HW216023   9.674  10.851   2.958
38006SOL     OW16024   8.803   2.449   6.487
38006SOL    HW116025   8.889   2.408   6.496
38006SOL    HW216026   8.785   2.487   6.573
38007SOL     OW16027   7.410   3.030   5.330
38007SOL    HW116028   7.454   3.112   5.307
38007SOL    HW216029   7.338   3.023   5.267
38008SOL     OW16030   9.163   5.485   4.652
38008SOL    HW116031   9.119   5.467   4.735
38008SOL    HW216032   9.096   5.469   4.585
38009SOL     OW16033  10.926  10.324   3.711
38009SOL    HW116034  10.957  10.309   3.621
38009SOL    HW216035  10.831  10.321   3.704
38010SOL     OW16036   5.792   2.298   0.575
38010SOL    HW116037   5.698   2.317   0.571
38010SOL    HW216038   5.803   2.247   0.655
38011SOL     OW16039   5.700   0.469   4.216
38011SOL    HW116040   5.642   0.419   4.158
38011SOL    HW216041   5.713   0.552   4.171
38012SOL     OW16042   5.652   1.511   7.152
38012SOL    HW116043   5.602   1.506   7.070
38012SOL    HW216044   5.605   1.575   7.205
38013SOL     OW16045   1.248   4.049   5.945
38013SOL    HW116046   1.328   4.100   5.934
38013SOL    HW216047   1.188   4.083   5.878
38014SOL     OW16048   1.727   5.274   1.850
38014SOL    HW116049   1.782   5.201   1.880
38014SOL    HW216050   1.751   5.285   1.758
38015SOL     OW16051   0.821   0.219   8.993
38015SOL    HW116052   0.916   0.210   8.980
38015SOL    HW216053   0.807   0.200   9.086
38016SOL     OW16054   6.005   1.399   1.232
38016SOL    HW116055   5.929   1.404   1.289
38016SOL    HW216056   6.011   1.306   1.208
38017SOL     OW16057   0.516   5.129   5.286
38017SOL    HW116058   0.476   5.216   5.284
38017SOL    HW216059   0.449   5.073   5.325
38018SOL     OW16060   1.162   3.786   3.269
38018SOL    HW116061   1.104   3.770   3.194
38018SOL    HW216062   1.250   3.767   3.235
38019SOL     OW16063   0.792   3.943   8.043
38019SOL    HW116064   0.811   3.994   7.964
38019SOL    HW216065   0.864   3.963   8.102
38020SOL     OW16066   1.472   4.854   6.358
38020SOL    HW116067   1.552   4.850   6.305
38020SOL    HW216068   1.466   4.767   6.398
38021SOL     OW16069  10.209   0.862   1.736
38021SOL    HW116070  10.257   0.783   1.709
38021SOL    HW216071  10.157   0.885   1.659
38022SOL     OW16072   9.530   7.041   1.297
38022SOL    HW116073   9.438   7.061   1.283
38022SOL    HW216074   9.560   7.008   1.212
38023SOL     OW16075  10.553   2.643   8.579
38023SOL    HW116076  10.486   2.707   8.600
38023SOL    HW216077  10.545   2.576   8.647
38024SOL     OW16078   2.655   1.611   7.303
38024SOL    HW116079   2.603   1.540   7.265
38024SOL    HW216080   2.618   1.691   7.265
38025SOL     OW16081  10.326   9.159   1.540
38025SOL    HW116082  10.409   9.111   1.542
38025SOL    HW216083  10.267   9.101   1.491
38026SOL     OW16084   1.599   2.199   0.844
38026SOL    HW116085   1.652   2.185   0.765
38026SOL    HW216086   1.646   2.266   0.893
38027SOL     OW16087   3.191   7.382   1.838
38027SOL    HW116088   3.109   7.383   1.888
38027SOL    HW216089   3.194   7.294   1.799
38028SOL     OW16090   9.186   3.048   4.017
38028SOL    HW116091   9.247   2.978   3.993
38028SOL    HW216092   9.173   3.097   3.935
38029SOL     OW16093   0.545   2.879   2.691
38029SOL    HW116094   0.620   2.888   2.750
38029SOL    HW216095   0.541   2.785   2.672
38030SOL     OW16096  10.094  10.040   2.458
38030SOL    HW116097  10.176   9.997   2.433
38030SOL    HW216098  10.111  10.133   2.445
38031SOL     OW16099   7.043   1.670   3.033
38031SOL    HW116100   7.079   1.722   2.961
38031SOL    HW216101   7.023   1.585   2.993
38032SOL     OW16102   8.785   8.777   9.854
38032SOL    HW116103   8.877   8.801   9.866
38032SOL    HW216104   8.762   8.813   9.768
38033SOL     OW16105   2.440   1.241   7.064
38033SOL    HW116106   2.375   1.195   7.011
38033SOL    HW216107   2.420   1.333   7.052
38034SOL     OW16108   0.345   2.454   5.499
38034SOL    HW116109   0.383   2.404   5.426
38034SOL    HW216110   0.267   2.496   5.461
38035SOL     OW16111   8.226   9.286   9.029
38035SOL    HW116112   8.301   9.246   8.985
38035SOL    HW216113   8.171   9.317   8.957
38036SOL     OW16114   0.946   2.842  10.793
38036SOL    HW116115   0.884   2.823  10.722
38036SOL    HW216116   0.972   2.933  10.779
38037SOL     OW16117   1.457   9.034   2.777
38037SOL    HW116118   1.370   9.034   2.737
38037SOL    HW216119   1.516   9.058   2.705
38038SOL     OW16120   5.054   9.100  10.433
38038SOL    HW116121   5.067   9.056  10.349
38038SOL    HW216122   4.960   9.094  10.449
38039SOL     OW16123  10.427   8.513   0.307
38039SOL    HW116124  10.476   8.494   0.387
38039SOL    HW216125  10.490   8.556   0.249
38040SOL     OW16126   0.730   4.708   3.037
38040SOL    HW116127   0.641   4.742   3.040
38040SOL    HW216128   0.720   4.614   3.018
38041SOL     OW16129  10.601   9.808   7.966
38041SOL    HW116130  10.640   9.869   8.028
38041SOL    HW216131  10.530   9.766   8.015
38042SOL     OW16132   8.170   5.476   4.865
38042SOL    HW116133   8.106   5.405   4.867
38042SOL    HW216134   8.154   5.525   4.945
38043SOL     OW16135   4.343   4.480  10.941
38043SOL    HW116136   4.279   4.481  10.870
38043SOL    HW216137   4.312   4.547  11.002
38044SOL     OW16138  10.193   3.537   7.201
38044SOL    HW116139  10.257   3.549   7.130
38044SOL    HW216140  10.109   3.559   7.161
38045SOL     OW16141   2.637   5.562   5.655
38045SOL    HW116142   2.636   5.527   5.744
38045SOL    HW216143   2.570   5.630   5.654
38046SOL     OW16144   8.060  10.286   4.162
38046SOL    HW116145   7.985  10.327   4.205
38046SOL    HW216146   8.115  10.359   4.134
38047SOL     OW16147   9.415   5.227   4.051
38047SOL    HW116148   9.402   5.310   4.006
38047SOL    HW216149   9.347   5.170   4.016
38048SOL     OW16150   9.293   8.547   4.920
38048SOL    HW116151   9.357   8.519   4.854
38048SOL    HW216152   9.275   8.638   4.899
38049SOL     OW16153   0.928   5.671   1.040
38049SOL    HW116154   0.957   5.699   1.127
38049SOL    HW216155   0.838   5.703   1.033
38050SOL     OW16156  10.371   1.064   9.537
38050SOL    HW116157  10.422   1.140   9.511
38050SOL    HW216158  10.384   1.058   9.631
38051SOL     OW16159   2.253  10.588   0.577
38051SOL    HW116160   2.317  10.517   0.568
38051SOL    HW216161   2.265  10.620   0.666
38052SOL     OW16162   0.700   0.657   4.940
38052SOL    HW116163   0.628   0.677   4.880
38052SOL    HW216164   0.679   0.570   4.974
38053SOL     OW16165   9.329   8.526   5.750
38053SOL    HW116166   9.260   8.585   5.780
38053SOL    HW216167   9.399   8.584   5.719
38054SOL     OW16168  10.973   4.434   8.439
38054SOL    HW116169  10.919   4.402   8.367
38054SOL    HW216170  11.046   4.372   8.444
38055SOL     OW16171   0.423  10.184   4.095
38055SOL    HW116172   0.463  10.105   4.132
38055SOL    HW216173   0.354  10.207   4.157
38056SOL     OW16174   7.975   5.677   9.364
38056SOL    HW116175   7.906   5.707   9.423
38056SOL    HW216176   8.034   5.625   9.419
38057SOL     OW16177  10.114   3.076  10.243
38057SOL    HW116178  10.071   3.161  10.241
38057SOL    HW216179  10.110   3.049  10.334
38058SOL     OW16180   4.326   2.058   7.336
38058SOL    HW116181   4.298   2.146   7.312
38058SOL    HW216182   4.358   2.020   7.254
38059SOL     OW16183   3.712   1.558   6.188
38059SOL    HW116184   3.635   1.593   6.232
38059SOL    HW216185   3.758   1.635   6.155
38060SOL     OW16186   7.484   2.455   7.778
38060SOL    HW116187   7.543   2.530   7.772
38060SOL    HW216188   7.397   2.492   7.769
38061SOL     OW16189   5.245   1.700   3.562
38061SOL    HW116190   5.296   1.678   3.640
38061SOL    HW216191   5.302   1.678   3.488
38062SOL     OW16192  10.842   5.833   8.356
38062SOL    HW116193  10.829   5.773   8.282
38062SOL    HW216194  10.828   5.779   8.434
38063SOL     OW16195   7.989   0.483   4.812
38063SOL    HW116196   7.922   0.482   4.743
38063SOL    HW216197   8.044   0.558   4.791
38064SOL     OW16198   8.453   2.390   3.885
38064SOL    HW116199   8.499   2.374   3.967
38064SOL    HW216200   8.398   2.312   3.873
38065SOL     OW16201   2.165   1.559   2.383
38065SOL    HW116202   2.151   1.578   2.475
38065SOL    HW216203   2.195   1.468   2.382
38066SOL     OW16204   5.846   5.687   0.793
38066SOL    HW116205   5.888   5.714   0.874
38066SOL    HW216206   5.854   5.763   0.735
38067SOL     OW16207   0.783   0.166   2.809
38067SOL    HW116208   0.725   0.117   2.750
38067SOL    HW216209   0.735   0.246   2.829
38068SOL     OW16210  10.873   9.986   4.602
38068SOL    HW116211  10.817   9.951   4.671
38068SOL    HW216212  10.962   9.964   4.630
38069SOL     OW16213   9.450   0.162   9.179
38069SOL    HW116214   9.463   0.067   9.179
38069SOL    HW216215   9.406   0.180   9.096
38070SOL     OW16216   7.409   5.521   3.455
38070SOL    HW116217   7.475   5.464   3.415
38070SOL    HW216218   7.339   5.461   3.482
38071SOL     OW16219   9.996   3.040   6.445
38071SOL    HW116220   9.938   2.966   6.428
38071SOL    HW216221  10.059   3.007   6.509
38072SOL     OW16222  10.774  10.944   7.682
38072SOL    HW116223  10.786  11.039   7.676
38072SOL    HW216224  10.697  10.927   7.628
38073SOL     OW16225   7.680   8.512   6.149
38073SOL    HW116226   7.737   8.454   6.098
38073SOL    HW216227   7.642   8.571   6.084
38074SOL     OW16228   0.531   7.227   9.205
38074SOL    HW116229   0.479   7.192   9.277
38074SOL    HW216230   0.530   7.321   9.217
38075SOL     OW16231   4.165   9.224   3.150
38075SOL    HW116232   4.145   9.231   3.056
38075SOL    HW216233   4.080   9.224   3.193
38076SOL     OW16234   6.764   4.212   9.304
38076SOL    HW116235   6.835   4.222   9.367
38076SOL    HW216236   6.753   4.299   9.265
38077SOL     OW16237  10.602   7.757   1.573
38077SOL    HW116238  10.572   7.688   1.632
38077SOL    HW216239  10.608   7.835   1.628
38078SOL     OW16240   5.336   6.665   3.955
38078SOL    HW116241   5.277   6.717   3.900
38078SOL    HW216242   5.338   6.710   4.039
38079SOL     OW16243   8.388   6.779   4.410
38079SOL    HW116244   8.347   6.863   4.429
38079SOL    HW216245   8.406   6.741   4.496
38080SOL     OW16246   5.497   9.990   0.413
38080SOL    HW116247   5.538   9.993   0.499
38080SOL    HW216248   5.570   9.996   0.351
38081SOL     OW16249   0.111   7.222   5.931
38081SOL    HW116250   0.162   7.168   5.871
38081SOL    HW216251   0.056   7.159   5.979
38082SOL     OW16252   7.905   5.448   7.858
38082SOL    HW116253   7.829   5.423   7.805
38082SOL    HW216254   7.870   5.466   7.945
38083SOL     OW16255   8.034   6.434   5.709
38083SOL    HW116256   8.118   6.476   5.693
38083SOL    HW216257   7.996   6.422   5.622
38084SOL     OW16258   9.914   7.143   1.301
38084SOL    HW116259   9.847   7.097   1.351
38084SOL    HW216260   9.935   7.220   1.353
38085SOL     OW16261   0.544   2.169   6.389
38085SOL    HW116262   0.570   2.112   6.316
38085SOL    HW216263   0.458   2.136   6.415
38086SOL     OW16264   2.080   1.081   7.589
38086SOL    HW116265   2.104   1.100   7.498
38086SOL    HW216266   2.078   1.166   7.632
38087SOL     OW16267   0.365   2.607   8.587
38087SOL    HW116268   0.413   2.677   8.630
38087SOL    HW216269   0.425   2.533   8.587
38088SOL     OW16270   6.636   6.173   5.793
38088SOL    HW116271   6.621   6.078   5.794
38088SOL    HW216272   6.722   6.183   5.753
38089SOL     OW16273   9.777   4.890   9.887
38089SOL    HW116274   9.687   4.918   9.904
38089SOL    HW216275   9.831   4.963   9.916
38090SOL     OW16276   6.248  10.822   0.786
38090SOL    HW116277   6.179  10.796   0.846
38090SOL    HW216278   6.214  10.900   0.742
38091SOL     OW16279   9.883  10.435   5.289
38091SOL    HW116280   9.950  10.396   5.345
38091SOL    HW216281   9.830  10.488   5.348
38092SOL     OW16282   9.504   5.226   5.910
38092SOL    HW116283   9.598   5.243   5.921
38092SOL    HW216284   9.463   5.312   5.917
38093SOL     OW16285   7.880   2.443   6.435
38093SOL    HW116286   7.931   2.467   6.357
38093SOL    HW216287   7.939   2.388   6.486
38094SOL     OW16288   8.503   0.721   9.267
38094SOL    HW116289   8.578   0.767   9.305
38094SOL    HW216290   8.515   0.730   9.172
38095SOL     OW16291   1.789   0.442   3.216
38095SOL    HW116292   1.835   0.479   3.291
38095SOL    HW216293   1.720   0.505   3.196
38096SOL     OW16294   4.053   8.127   3.666
38096SOL    HW116295   4.131   8.076   3.688
38096SOL    HW216296   4.021   8.159   3.750
38097SOL     OW16297   6.656   3.202   1.710
38097SOL    HW116298   6.620   3.113   1.718
38097SOL    HW216299   6.639   3.227   1.619
38098SOL     OW16300   2.418   0.327   5.809
38098SOL    HW116301   2.448   0.418   5.810
38098SOL    HW216302   2.462   0.288   5.733
38099SOL     OW16303   0.156  10.907   8.526
38099SOL    HW116304   0.086  10.900   8.461
38099SOL    HW216305   0.144  10.994   8.564
38100SOL     OW16306   1.180   6.939   4.416
38100SOL    HW116307   1.232   6.893   4.350
38100SOL    HW216308   1.184   6.882   4.493
38101SOL     OW16309   7.913   8.250   2.516
38101SOL    HW116310   7.852   8.305   2.563
38101SOL    HW216311   7.949   8.307   2.448
38102SOL     OW16312  10.073   1.510   7.758
38102SOL    HW116313  10.031   1.594   7.772
38102SOL    HW216314  10.156   1.516   7.805
38103SOL     OW16315   4.721   2.735  10.096
38103SOL    HW116316   4.765   2.812  10.132
38103SOL    HW216317   4.661   2.707  10.165
38104SOL     OW16318   6.848   5.918   6.079
38104SOL    HW116319   6.906   5.965   6.019
38104SOL    HW216320   6.896   5.838   6.102
38105SOL     OW16321   7.299   3.839   2.887
38105SOL    HW116322   7.224   3.782   2.871
38105SOL    HW216323   7.304   3.847   2.982
38106SOL     OW16324   3.038   0.897   1.602
38106SOL    HW116325   2.946   0.919   1.591
38106SOL    HW216326   3.044   0.805   1.575
38107SOL     OW16327   9.420  10.424   9.304
38107SOL    HW116328   9.483  10.352   9.299
38107SOL    HW216329   9.472  10.502   9.283
38108SOL     OW16330   2.972   2.056   6.741
38108SOL    HW116331   2.917   2.032   6.666
38108SOL    HW216332   2.963   2.151   6.748
38109SOL     OW16333  10.521   2.484   9.396
38109SOL    HW116334  10.474   2.561   9.427
38109SOL    HW216335  10.613   2.503   9.411
38110SOL     OW16336  10.467  10.552   9.372
38110SOL    HW116337  10.508  10.632   9.337
38110SOL    HW216338  10.386  10.543   9.321
38111SOL     OW16339   9.259   2.660   5.447
38111SOL    HW116340   9.240   2.728   5.382
38111SOL    HW216341   9.228   2.695   5.530
38112SOL     OW16342   6.721   0.466  10.243
38112SOL    HW116343   6.719   0.370  10.243
38112SOL    HW216344   6.693   0.490  10.154
38113SOL     OW16345   9.857  10.962  10.029
38113SOL    HW116346   9.778  10.908  10.034
38113SOL    HW216347   9.928  10.902  10.052
38114SOL     OW16348   7.377   3.756   7.118
38114SOL    HW116349   7.468   3.784   7.131
38114SOL    HW216350   7.324   3.825   7.157
38115SOL     OW16351   9.520   1.816   7.184
38115SOL    HW116352   9.577   1.834   7.259
38115SOL    HW216353   9.574   1.837   7.107
38116SOL     OW16354   4.836   2.403   4.803
38116SOL    HW116355   4.889   2.386   4.725
38116SOL    HW216356   4.747   2.380   4.777
38117SOL     OW16357   8.853   7.944   5.602
38117SOL    HW116358   8.911   7.878   5.563
38117SOL    HW216359   8.907   8.023   5.607
38118SOL     OW16360   2.643  10.010  11.040
38118SOL    HW116361   2.665   9.921  11.069
38118SOL    HW216362   2.651  10.064  11.118
38119SOL     OW16363   0.322   1.829   3.684
38119SOL    HW116364   0.404   1.811   3.638
38119SOL    HW216365   0.349   1.874   3.764
38120SOL     OW16366   9.441   2.382   0.025
38120SOL    HW116367   9.360   2.365  -0.023
38120SOL    HW216368   9.413   2.433   0.101
38121SOL     OW16369   8.233   3.481   8.614
38121SOL    HW116370   8.299   3.445   8.673
38121SOL    HW216371   8.267   3.462   8.526
38122SOL     OW16372   2.437   4.301   1.051
38122SOL    HW116373   2.467   4.278   0.963
38122SOL    HW216374   2.354   4.346   1.037
38123SOL     OW16375   7.355  10.873   6.975
38123SOL    HW116376   7.385  10.794   6.929
38123SOL    HW216377   7.411  10.878   7.052
38124SOL     OW16378   2.925   4.724   5.131
38124SOL    HW116379   2.868   4.719   5.207
38124SOL    HW216380   2.867   4.711   5.056
38125SOL     OW16381   6.917   0.454   4.471
38125SOL    HW116382   6.936   0.542   4.504
38125SOL    HW216383   6.847   0.467   4.407
38126SOL     OW16384   8.758   7.345   8.949
38126SOL    HW116385   8.713   7.295   8.881
38126SOL    HW216386   8.813   7.407   8.901
38127SOL     OW16387   8.111   6.382   8.417
38127SOL    HW116388   8.158   6.309   8.458
38127SOL    HW216389   8.028   6.343   8.388
38128SOL     OW16390   9.037   1.823   6.967
38128SOL    HW116391   8.957   1.868   6.940
38128SOL    HW216392   9.014   1.730   6.966
38129SOL     OW16393   4.971  10.702   1.308
38129SOL    HW116394   4.915  10.625   1.308
38129SOL    HW216395   5.039  10.682   1.243
38130SOL     OW16396   9.599   2.775   8.130
38130SOL    HW116397   9.584   2.777   8.035
38130SOL    HW216398   9.537   2.710   8.162
38131SOL     OW16399   6.156   1.278   6.426
38131SOL    HW116400   6.179   1.367   6.453
38131SOL    HW216401   6.069   1.286   6.388
38132SOL     OW16402   0.118   8.041   5.148
38132SOL    HW116403   0.088   8.016   5.060
38132SOL    HW216404   0.109   7.961   5.200
38133SOL     OW16405   3.265   1.991   8.439
38133SOL    HW116406   3.319   2.008   8.361
38133SOL    HW216407   3.327   1.992   8.512
38134SOL     OW16408   4.857   7.405   0.469
38134SOL    HW116409   4.801   7.331   0.494
38134SOL    HW216410   4.888   7.441   0.552
38135SOL     OW16411   9.907   2.607   7.724
38135SOL    HW116412   9.865   2.623   7.639
38135SOL    HW216413   9.925   2.513   7.724
38136SOL     OW16414   4.897   2.415   7.824
38136SOL    HW116415   4.958   2.356   7.869
38136SOL    HW216416   4.950   2.456   7.755
38137SOL     OW16417   9.524   8.188   6.548
38137SOL    HW116418   9.605   8.226   6.583
38137SOL    HW216419   9.486   8.140   6.621
38138SOL     OW16420  10.509   2.462   6.663
38138SOL    HW116421  10.442   2.471   6.731
38138SOL    HW216422  10.470   2.501   6.585
38139SOL     OW16423   4.507   8.618   9.496
38139SOL    HW116424   4.520   8.712   9.490
38139SOL    HW216425   4.519   8.598   9.589
38140SOL     OW16426   7.261   9.603   9.386
38140SOL    HW116427   7.245   9.697   9.389
38140SOL    HW216428   7.223   9.575   9.302
38141SOL     OW16429   8.016   2.212   4.291
38141SOL    HW116430   8.094   2.255   4.325
38141SOL    HW216431   8.025   2.219   4.196
38142SOL     OW16432   9.594   2.127   1.920
38142SOL    HW116433   9.589   2.054   1.982
38142SOL    HW216434   9.515   2.119   1.867
38143SOL     OW16435   7.092   1.988   5.664
38143SOL    HW116436   7.061   2.057   5.722
38143SOL    HW216437   7.046   2.002   5.581
38144SOL     OW16438   2.750   9.794   2.286
38144SOL    HW116439   2.775   9.836   2.204
38144SOL    HW216440   2.722   9.866   2.342
38145SOL     OW16441   5.768   3.482   2.356
38145SOL    HW116442   5.788   3.533   2.434
38145SOL    HW216443   5.796   3.393   2.377
38146SOL     OW16444  10.224   9.601   8.291
38146SOL    HW116445  10.161   9.652   8.342
38146SOL    HW216446  10.281   9.666   8.250
38147SOL     OW16447   6.675   1.241   9.691
38147SOL    HW116448   6.668   1.298   9.614
38147SOL    HW216449   6.589   1.201   9.699
38148SOL     OW16450   8.824   2.499   1.621
38148SOL    HW116451   8.734   2.469   1.613
38148SOL    HW216452   8.841   2.545   1.539
38149SOL     OW16453   0.432   4.266   1.029
38149SOL    HW116454   0.354   4.290   0.978
38149SOL    HW216455   0.417   4.302   1.116
38150SOL     OW16456   2.666   1.728  10.889
38150SOL    HW116457   2.758   1.703  10.892
38150SOL    HW216458   2.639   1.733  10.980
38151SOL     OW16459   1.840   9.926   6.810
38151SOL    HW116460   1.833   9.887   6.897
38151SOL    HW216461   1.909   9.875   6.767
38152SOL     OW16462   6.687   7.436   7.563
38152SOL    HW116463   6.777   7.451   7.534
38152SOL    HW216464   6.648   7.382   7.494
38153SOL     OW16465   0.539   2.713   1.123
38153SOL    HW116466   0.560   2.777   1.191
38153SOL    HW216467   0.517   2.766   1.046
38154SOL     OW16468  10.432   2.266   5.179
38154SOL    HW116469  10.368   2.329   5.147
38154SOL    HW216470  10.516   2.296   5.143
38155SOL     OW16471   3.257   1.811   3.307
38155SOL    HW116472   3.237   1.894   3.349
38155SOL    HW216473   3.341   1.784   3.344
38156SOL     OW16474   9.349   4.266   5.016
38156SOL    HW116475   9.254   4.262   5.011
38156SOL    HW216476   9.368   4.280   5.108
38157SOL     OW16477   6.043   1.217   8.885
38157SOL    HW116478   6.081   1.178   8.805
38157SOL    HW216479   6.104   1.287   8.908
38158SOL     OW16480   2.334   0.402   9.034
38158SOL    HW116481   2.264   0.398   8.968
38158SOL    HW216482   2.288   0.408   9.117
38159SOL     OW16483   3.102   5.028   5.738
38159SOL    HW116484   3.127   5.103   5.792
38159SOL    HW216485   3.149   5.041   5.655
38160SOL     OW16486   6.076   2.183   8.906
38160SOL    HW116487   5.984   2.181   8.879
38160SOL    HW216488   6.120   2.236   8.839
38161SOL     OW16489   3.520   6.787   2.108
38161SOL    HW116490   3.465   6.865   2.101
38161SOL    HW216491   3.553   6.773   2.019
38162SOL     OW16492   9.597   1.396   5.336
38162SOL    HW116493   9.618   1.488   5.349
38162SOL    HW216494   9.620   1.353   5.419
38163SOL     OW16495   9.760   7.833   0.295
38163SOL    HW116496   9.676   7.790   0.311
38163SOL    HW216497   9.758   7.854   0.201
38164SOL     OW16498   7.598   3.738   8.377
38164SOL    HW116499   7.618   3.669   8.314
38164SOL    HW216500   7.505   3.726   8.397
38165SOL     OW16501   0.235   4.024  10.977
38165SOL    HW116502   0.242   4.008  10.883
38165SOL    HW216503   0.222   3.937  11.015
38166SOL     OW16504   7.803   3.645   2.109
38166SOL    HW116505   7.729   3.681   2.157
38166SOL    HW216506   7.847   3.721   2.071
38167SOL     OW16507   1.361   2.912   9.736
38167SOL    HW116508   1.440   2.861   9.716
38167SOL    HW216509   1.292   2.869   9.685
38168SOL     OW16510   8.609   0.539   4.476
38168SOL    HW116511   8.653   0.494   4.548
38168SOL    HW216512   8.679   0.588   4.433
38169SOL     OW16513   7.241  10.053   7.544
38169SOL    HW116514   7.234   9.977   7.486
38169SOL    HW216515   7.239  10.128   7.485
38170SOL     OW16516   7.676   8.275   5.686
38170SOL    HW116517   7.707   8.364   5.672
38170SOL    HW216518   7.752   8.220   5.667
38171SOL     OW16519   5.804   8.768   1.103
38171SOL    HW116520   5.846   8.786   1.187
38171SOL    HW216521   5.716   8.737   1.126
38172SOL     OW16522   4.817  10.392  10.850
38172SOL    HW116523   4.791  10.483  10.837
38172SOL    HW216524   4.811  10.378  10.944
38173SOL     OW16525   0.218   4.767   4.121
38173SOL    HW116526   0.273   4.838   4.089
38173SOL    HW216527   0.138   4.810   4.152
38174SOL     OW16528   9.328   5.116   6.982
38174SOL    HW116529   9.359   5.144   7.068
38174SOL    HW216530   9.376   5.035   6.964
38175SOL     OW16531   9.746   2.740   5.741
38175SOL    HW116532   9.781   2.821   5.777
38175SOL    HW216533   9.690   2.705   5.810
38176SOL     OW16534   1.055   9.370  10.259
38176SOL    HW116535   1.024   9.419  10.183
38176SOL    HW216536   1.028   9.422  10.334
38177SOL     OW16537  10.401   6.648   6.467
38177SOL    HW116538  10.415   6.700   6.388
38177SOL    HW216539  10.310   6.618   6.460
38178SOL     OW16540   9.916   7.119   1.665
38178SOL    HW116541   9.855   7.055   1.628
38178SOL    HW216542   9.860   7.192   1.692
38179SOL     OW16543   0.063   1.441   0.631
38179SOL    HW116544   0.072   1.480   0.717
38179SOL    HW216545   0.032   1.352   0.648
38180SOL     OW16546   7.423   1.293   5.600
38180SOL    HW116547   7.392   1.343   5.524
38180SOL    HW216548   7.402   1.202   5.579
38181SOL     OW16549   3.469   3.589   7.013
38181SOL    HW116550   3.466   3.684   7.024
38181SOL    HW216551   3.415   3.555   7.084
38182SOL     OW16552   4.246   0.360   4.944
38182SOL    HW116553   4.309   0.376   4.874
38182SOL    HW216554   4.193   0.439   4.948
38183SOL     OW16555   0.487   9.537   6.756
38183SOL    HW116556   0.415   9.536   6.818
38183SOL    HW216557   0.450   9.501   6.675
38184SOL     OW16558   2.664   3.860   6.747
38184SOL    HW116559   2.630   3.794   6.686
38184SOL    HW216560   2.717   3.809   6.809
38185SOL     OW16561   9.212   4.576   7.575
38185SOL    HW116562   9.261   4.634   7.516
38185SOL    HW216563   9.239   4.488   7.548
38186SOL     OW16564   1.958   2.446   8.959
38186SOL    HW116565   1.989   2.398   8.881
38186SOL    HW216566   1.887   2.392   8.993
38187SOL     OW16567   5.244   8.291   5.169
38187SOL    HW116568   5.221   8.348   5.242
38187SOL    HW216569   5.336   8.268   5.184
38188SOL     OW16570   2.470   6.812  10.986
38188SOL    HW116571   2.481   6.906  10.978
38188SOL    HW216572   2.412   6.788  10.913
38189SOL     OW16573   6.074   2.961   9.095
38189SOL    HW116574   6.006   2.956   9.162
38189SOL    HW216575   6.052   2.892   9.032
38190SOL     OW16576   3.723   1.967   1.623
38190SOL    HW116577   3.662   1.938   1.690
38190SOL    HW216578   3.668   1.997   1.551
38191SOL     OW16579   9.118   4.397   6.236
38191SOL    HW116580   9.174   4.465   6.273
38191SOL    HW216581   9.147   4.316   6.279
38192SOL     OW16582   2.272   1.064   4.496
38192SOL    HW116583   2.306   1.153   4.503
38192SOL    HW216584   2.180   1.075   4.472
38193SOL     OW16585  10.616   2.867   7.681
38193SOL    HW116586  10.680   2.859   7.610
38193SOL    HW216587  10.565   2.786   7.675
38194SOL     OW16588   2.044   2.195  10.271
38194SOL    HW116589   1.982   2.258  10.234
38194SOL    HW216590   2.112   2.249  10.312
38195SOL     OW16591   9.226   1.043  11.019
38195SOL    HW116592   9.158   1.066  10.956
38195SOL    HW216593   9.178   1.011  11.095
38196SOL     OW16594   9.738   8.670   5.467
38196SOL    HW116595   9.747   8.646   5.374
38196SOL    HW216596   9.812   8.728   5.484
38197SOL     OW16597   3.661   7.113   0.024
38197SOL    HW116598   3.673   7.157   0.108
38197SOL    HW216599   3.704   7.170  -0.039
38198SOL     OW16600   8.508   2.987   7.438
38198SOL    HW116601   8.590   2.938   7.429
38198SOL    HW216602   8.527   3.073   7.401
38199SOL     OW16603  10.040  10.565   2.232
38199SOL    HW116604  10.071  10.528   2.149
38199SOL    HW216605  10.094  10.643   2.244
38200SOL     OW16606  10.549   2.060   9.039
38200SOL    HW116607  10.569   2.108   9.119
38200SOL    HW216608  10.454   2.060   9.034
38201SOL     OW16609   1.865   5.277   1.206
38201SOL    HW116610   1.858   5.181   1.210
38201SOL    HW216611   1.849   5.298   1.114
38202SOL     OW16612   1.628   1.427   2.737
38202SOL    HW116613   1.551   1.376   2.762
38202SOL    HW216614   1.610   1.456   2.647
38203SOL     OW16615  10.308   5.382   4.545
38203SOL    HW116616  10.227   5.432   4.555
38203SOL    HW216617  10.313   5.327   4.623
38204SOL     OW16618   9.986   0.056   6.100
38204SOL    HW116619   9.986   0.090   6.010
38204SOL    HW216620  10.073   0.078   6.134
38205SOL     OW16621   7.921   2.487   1.298
38205SOL    HW116622   7.939   2.532   1.380
38205SOL    HW216623   7.939   2.394   1.316
38206SOL     OW16624   5.063   9.385   6.743
38206SOL    HW116625   5.026   9.471   6.763
38206SOL    HW216626   5.158   9.398   6.745
38207SOL     OW16627   4.972   3.116   5.372
38207SOL    HW116628   4.973   3.167   5.291
38207SOL    HW216629   4.879   3.097   5.387
38208SOL     OW16630   9.870   6.738   0.977
38208SOL    HW116631   9.817   6.671   0.933
38208SOL    HW216632   9.904   6.694   1.055
38209SOL     OW16633   8.749   5.655   5.676
38209SOL    HW116634   8.750   5.746   5.704
38209SOL    HW216635   8.837   5.639   5.641
38210SOL     OW16636   2.522   4.536  10.281
38210SOL    HW116637   2.495   4.454  10.239
38210SOL    HW216638   2.493   4.604  10.221
38211SOL     OW16639   5.811   1.672   8.626
38211SOL    HW116640   5.778   1.584   8.604
38211SOL    HW216641   5.880   1.656   8.690
38212SOL     OW16642   1.620   9.818   6.416
38212SOL    HW116643   1.667   9.777   6.489
38212SOL    HW216644   1.659   9.778   6.338
38213SOL     OW16645   3.511  11.074   1.236
38213SOL    HW116646   3.555  11.138   1.180
38213SOL    HW216647   3.557  10.992   1.218
38214SOL     OW16648   3.904   9.487   7.278
38214SOL    HW116649   3.861   9.566   7.247
38214SOL    HW216650   3.979   9.475   7.219
38215SOL     OW16651   8.753   3.341   9.548
38215SOL    HW116652   8.663   3.362   9.522
38215SOL    HW216653   8.801   3.336   9.465
38216SOL     OW16654   8.084   8.233   8.868
38216SOL    HW116655   8.107   8.156   8.816
38216SOL    HW216656   8.123   8.217   8.953
38217SOL     OW16657  11.095  10.705   7.202
38217SOL    HW116658  11.041  10.782   7.187
38217SOL    HW216659  11.125  10.714   7.292
38218SOL     OW16660   1.581   3.947   6.337
38218SOL    HW116661   1.586   3.901   6.421
38218SOL    HW216662   1.583   3.877   6.272
38219SOL     OW16663  10.016   9.441   3.693
38219SOL    HW116664  10.022   9.526   3.651
38219SOL    HW216665  10.059   9.453   3.777
38220SOL     OW16666   8.890   2.662   1.825
38220SOL    HW116667   8.886   2.595   1.757
38220SOL    HW216668   8.806   2.656   1.870
38221SOL     OW16669   6.791  10.444   3.299
38221SOL    HW116670   6.774  10.529   3.340
38221SOL    HW216671   6.739  10.446   3.218
38222SOL     OW16672   7.857   8.059   0.464
38222SOL    HW116673   7.894   8.032   0.379
38222SOL    HW216674   7.909   8.135   0.489
38223SOL     OW16675   8.825   8.851   0.802
38223SOL    HW116676   8.864   8.842   0.715
38223SOL    HW216677   8.799   8.943   0.807
38224SOL     OW16678  10.475   3.708   8.963
38224SOL    HW116679  10.454   3.791   8.921
38224SOL    HW216680  10.485   3.729   9.055
38225SOL     OW16681   8.618   1.070   4.980
38225SOL    HW116682   8.660   1.000   5.030
38225SOL    HW216683   8.665   1.149   5.006
38226SOL     OW16684   0.573   4.165   4.471
38226SOL    HW116685   0.592   4.098   4.537
38226SOL    HW216686   0.549   4.242   4.521
38227SOL     OW16687   4.692   5.984   4.788
38227SOL    HW116688   4.625   5.968   4.721
38227SOL    HW216689   4.643   6.006   4.867
38228SOL     OW16690   7.285  10.851   3.379
38228SOL    HW116691   7.315  10.942   3.372
38228SOL    HW216692   7.192  10.855   3.358
38229SOL     OW16693  10.348   8.887   8.365
38229SOL    HW116694  10.366   8.969   8.319
38229SOL    HW216695  10.412   8.825   8.330
38230SOL     OW16696   1.471   5.195   4.858
38230SOL    HW116697   1.549   5.216   4.806
38230SOL    HW216698   1.448   5.106   4.831
38231SOL     OW16699   9.881   0.064  10.432
38231SOL    HW116700   9.887   0.085  10.525
38231SOL    HW216701   9.870  -0.031  10.430
38232SOL     OW16702   8.980  11.039   6.929
38232SOL    HW116703   8.923  11.051   7.005
38232SOL    HW216704   9.001  11.128   6.900
38233SOL     OW16705   2.564  11.099   6.419
38233SOL    HW116706   2.474  11.077   6.444
38233SOL    HW216707   2.603  11.134   6.499
38234SOL     OW16708   4.242   9.595   3.583
38234SOL    HW116709   4.273   9.665   3.526
38234SOL    HW216710   4.300   9.598   3.659
38235SOL     OW16711   0.135   5.847   8.735
38235SOL    HW116712   0.216   5.796   8.730
38235SOL    HW216713   0.079   5.809   8.667
38236SOL     OW16714   8.475   5.396   2.367
38236SOL    HW116715   8.422   5.455   2.419
38236SOL    HW216716   8.560   5.440   2.359
38237SOL     OW16717  10.943   6.661   0.569
38237SOL    HW116718  10.871   6.604   0.595
38237SOL    HW216719  10.955   6.720   0.643
38238SOL     OW16720   2.753   2.435  10.126
38238SOL    HW116721   2.753   2.432  10.221
38238SOL    HW216722   2.672   2.481  10.103
38239SOL     OW16723   5.856   7.127   2.021
38239SOL    HW116724   5.782   7.081   1.981
38239SOL    HW216725   5.925   7.060   2.026
38240SOL     OW16726   0.492   6.833   1.559
38240SOL    HW116727   0.535   6.768   1.614
38240SOL    HW216728   0.552   6.844   1.485
38241SOL     OW16729   9.712   4.892   8.925
38241SOL    HW116730   9.685   4.820   8.867
38241SOL    HW216731   9.711   4.854   9.013
38242SOL     OW16732   7.713   3.170   0.389
38242SOL    HW116733   7.692   3.149   0.298
38242SOL    HW216734   7.631   3.156   0.436
38243SOL     OW16735   8.355   4.776   3.676
38243SOL    HW116736   8.382   4.719   3.603
38243SOL    HW216737   8.431   4.777   3.735
38244SOL     OW16738   3.648  10.041   0.207
38244SOL    HW116739   3.717  10.031   0.140
38244SOL    HW216740   3.665   9.970   0.269
38245SOL     OW16741   1.347   0.217  10.701
38245SOL    HW116742   1.267   0.256  10.735
38245SOL    HW216743   1.331   0.208  10.607
38246SOL     OW16744   1.962  10.361   8.424
38246SOL    HW116745   1.897  10.403   8.367
38246SOL    HW216746   1.984  10.279   8.378
38247SOL     OW16747   1.095   5.303   7.775
38247SOL    HW116748   1.134   5.372   7.828
38247SOL    HW216749   1.025   5.346   7.726
38248SOL     OW16750   9.505   9.242   1.399
38248SOL    HW116751   9.514   9.180   1.472
38248SOL    HW216752   9.585   9.229   1.347
38249SOL     OW16753   6.677   7.546   6.301
38249SOL    HW116754   6.591   7.540   6.343
38249SOL    HW216755   6.717   7.460   6.317
38250SOL     OW16756   7.388   8.070   6.977
38250SOL    HW116757   7.354   8.114   6.899
38250SOL    HW216758   7.483   8.081   6.970
38251SOL     OW16759   1.983   3.872  10.196
38251SOL    HW116760   2.066   3.848  10.155
38251SOL    HW216761   1.988   3.966  10.208
38252SOL     OW16762   1.144  10.859   5.542
38252SOL    HW116763   1.070  10.867   5.602
38252SOL    HW216764   1.104  10.848   5.455
38253SOL     OW16765  10.567   8.775   5.050
38253SOL    HW116766  10.582   8.775   5.144
38253SOL    HW216767  10.600   8.859   5.020
38254SOL     OW16768  10.016   1.688   2.021
38254SOL    HW116769  10.003   1.782   2.025
38254SOL    HW216770  10.094   1.672   2.074
38255SOL     OW16771   7.796   3.265   6.105
38255SOL    HW116772   7.818   3.339   6.161
38255SOL    HW216773   7.805   3.298   6.016
38256SOL     OW16774   4.650   1.111   3.382
38256SOL    HW116775   4.708   1.039   3.358
38256SOL    HW216776   4.674   1.132   3.472
38257SOL     OW16777   2.844   5.857   5.822
38257SOL    HW116778   2.928   5.811   5.820
38257SOL    HW216779   2.832   5.888   5.732
38258SOL     OW16780   1.105   5.348   4.115
38258SOL    HW116781   1.188   5.357   4.069
38258SOL    HW216782   1.120   5.389   4.200
38259SOL     OW16783   5.527  10.217   4.046
38259SOL    HW116784   5.445  10.262   4.066
38259SOL    HW216785   5.577  10.221   4.127
38260SOL     OW16786   8.488   9.594   5.140
38260SOL    HW116787   8.561   9.654   5.125
38260SOL    HW216788   8.419   9.649   5.177
38261SOL     OW16789   7.908   2.311   7.132
38261SOL    HW116790   7.884   2.342   7.044
38261SOL    HW216791   7.994   2.350   7.149
38262SOL     OW16792   7.742   2.012   8.398
38262SOL    HW116793   7.823   1.962   8.388
38262SOL    HW216794   7.728   2.052   8.312
38263SOL     OW16795   6.268   1.549   1.424
38263SOL    HW116796   6.215   1.576   1.349
38263SOL    HW216797   6.241   1.607   1.495
38264SOL     OW16798   5.179   0.076   9.711
38264SOL    HW116799   5.261   0.118   9.685
38264SOL    HW216800   5.172   0.092   9.805
38265SOL     OW16801   0.572  10.560   1.493
38265SOL    HW116802   0.484  10.586   1.466
38265SOL    HW216803   0.586  10.606   1.576
38266SOL     OW16804   9.409   0.859   4.489
38266SOL    HW116805   9.437   0.793   4.425
38266SOL    HW216806   9.394   0.938   4.437
38267SOL     OW16807   9.852   6.598   5.916
38267SOL    HW116808   9.858   6.518   5.968
38267SOL    HW216809   9.880   6.667   5.975
38268SOL     OW16810   5.467   6.135   7.774
38268SOL    HW116811   5.532   6.179   7.719
38268SOL    HW216812   5.479   6.172   7.861
38269SOL     OW16813   7.199   2.840   4.678
38269SOL    HW116814   7.225   2.836   4.586
38269SOL    HW216815   7.238   2.921   4.711
38270SOL     OW16816   8.050   4.982   9.364
38270SOL    HW116817   8.089   5.009   9.447
38270SOL    HW216818   7.960   5.015   9.368
38271SOL     OW16819   1.364   3.814   9.097
38271SOL    HW116820   1.373   3.909   9.097
38271SOL    HW216821   1.355   3.790   9.189
38272SOL     OW16822   1.574   0.954   6.839
38272SOL    HW116823   1.667   0.973   6.851
38272SOL    HW216824   1.545   1.016   6.772
38273SOL     OW16825   8.475   2.354   9.804
38273SOL    HW116826   8.414   2.326   9.735
38273SOL    HW216827   8.420   2.366   9.881
38274SOL     OW16828   6.734   3.559   8.926
38274SOL    HW116829   6.650   3.603   8.915
38274SOL    HW216830   6.733   3.490   8.859
38275SOL     OW16831   0.719  10.674   7.731
38275SOL    HW116832   0.630  10.659   7.698
38275SOL    HW216833   0.770  10.599   7.698
38276SOL     OW16834   8.348   7.598   6.584
38276SOL    HW116835   8.398   7.679   6.571
38276SOL    HW216836   8.415   7.530   6.597
38277SOL     OW16837   7.644   2.551   6.459
38277SOL    HW116838   7.628   2.566   6.366
38277SOL    HW216839   7.730   2.510   6.461
38278SOL     OW16840   4.112   2.446   9.847
38278SOL    HW116841   4.188   2.443   9.788
38278SOL    HW216842   4.038   2.425   9.790
38279SOL     OW16843   3.144   5.910   0.422
38279SOL    HW116844   3.135   5.983   0.360
38279SOL    HW216845   3.227   5.926   0.467
38280SOL     OW16846  10.883   2.567   2.282
38280SOL    HW116847  10.843   2.502   2.340
38280SOL    HW216848  10.827   2.644   2.289
38281SOL     OW16849   9.758   5.842  10.132
38281SOL    HW116850   9.853   5.856  10.126
38281SOL    HW216851   9.741   5.769  10.071
38282SOL     OW16852   6.586  11.062   8.249
38282SOL    HW116853   6.492  11.047   8.261
38282SOL    HW216854   6.617  10.983   8.204
38283SOL     OW16855   7.280   3.929   1.741
38283SOL    HW116856   7.345   3.999   1.747
38283SOL    HW216857   7.281   3.887   1.827
38284SOL     OW16858   9.499   5.377   1.790
38284SOL    HW116859   9.461   5.289   1.782
38284SOL    HW216860   9.491   5.414   1.702
38285SOL     OW16861   1.328   2.957   0.245
38285SOL    HW116862   1.282   2.933   0.164
38285SOL    HW216863   1.272   3.023   0.286
38286SOL     OW16864   8.423   0.528   9.617
38286SOL    HW116865   8.470   0.450   9.587
38286SOL    HW216866   8.373   0.556   9.540
38287SOL     OW16867   0.200   4.159   1.244
38287SOL    HW116868   0.258   4.093   1.281
38287SOL    HW216869   0.233   4.242   1.278
38288SOL     OW16870   9.944   2.618   8.517
38288SOL    HW116871   9.992   2.549   8.563
38288SOL    HW216872   9.975   2.613   8.426
38289SOL     OW16873   3.162   9.243   5.063
38289SOL    HW116874   3.257   9.233   5.074
38289SOL    HW216875   3.152   9.275   4.973
38290SOL     OW16876   9.244   9.470   1.892
38290SOL    HW116877   9.197   9.480   1.975
38290SOL    HW216878   9.266   9.377   1.888
38291SOL     OW16879   9.948   4.989   4.865
38291SOL    HW116880   9.870   4.935   4.857
38291SOL    HW216881  10.018   4.935   4.827
38292SOL     OW16882   9.199   2.599   5.127
38292SOL    HW116883   9.139   2.529   5.100
38292SOL    HW216884   9.204   2.591   5.222
38293SOL     OW16885   5.028   1.290   5.182
38293SOL    HW116886   4.974   1.285   5.103
38293SOL    HW216887   5.094   1.221   5.170
38294SOL     OW16888   8.501   4.978  10.682
38294SOL    HW116889   8.430   5.036  10.654
38294SOL    HW216890   8.456   4.904  10.723
38295SOL     OW16891   1.573   4.094   0.233
38295SOL    HW116892   1.559   4.002   0.211
38295SOL    HW216893   1.502   4.140   0.188
38296SOL     OW16894   5.373   0.512   8.450
38296SOL    HW116895   5.352   0.495   8.358
38296SOL    HW216896   5.428   0.590   8.448
38297SOL     OW16897   6.057   8.122  11.021
38297SOL    HW116898   6.040   8.121  11.115
38297SOL    HW216899   6.072   8.214  10.999
38298SOL     OW16900  10.157   4.305  10.325
38298SOL    HW116901  10.131   4.329  10.236
38298SOL    HW216902  10.110   4.366  10.381
38299SOL     OW16903   8.695   1.082   1.103
38299SOL    HW116904   8.671   0.989   1.102
38299SOL    HW216905   8.611   1.128   1.104
38300SOL     OW16906  10.723   2.314   4.237
38300SOL    HW116907  10.651   2.364   4.199
38300SOL    HW216908  10.682   2.262   4.306
38301SOL     OW16909   6.950   1.711   1.093
38301SOL    HW116910   6.915   1.705   1.181
38301SOL    HW216911   7.038   1.746   1.104
38302SOL     OW16912   3.090   1.928   1.027
38302SOL    HW116913   3.080   1.965   0.939
38302SOL    HW216914   3.134   1.997   1.077
38303SOL     OW16915   6.688   1.319   8.548
38303SOL    HW116916   6.612   1.345   8.600
38303SOL    HW216917   6.657   1.321   8.457
38304SOL     OW16918  10.651   0.120   7.429
38304SOL    HW116919  10.708   0.125   7.506
38304SOL    HW216920  10.630   0.027   7.421
38305SOL     OW16921   9.755   1.190   9.952
38305SOL    HW116922   9.662   1.171   9.966
38305SOL    HW216923   9.785   1.121   9.892
38306SOL     OW16924   7.457  10.879   8.146
38306SOL    HW116925   7.362  10.878   8.155
38306SOL    HW216926   7.489  10.830   8.221
38307SOL     OW16927  10.694   2.360   5.845
38307SOL    HW116928  10.668   2.329   5.758
38307SOL    HW216929  10.666   2.290   5.904
38308SOL     OW16930   2.887   5.113   7.552
38308SOL    HW116931   2.794   5.133   7.541
38308SOL    HW216932   2.892   5.066   7.635
38309SOL     OW16933   3.649   5.241   1.496
38309SOL    HW116934   3.574   5.181   1.492
38309SOL    HW216935   3.612   5.323   1.527
38310SOL     OW16936   6.410   3.443   0.767
38310SOL    HW116937   6.503   3.463   0.779
38310SOL    HW216938   6.396   3.450   0.672
38311SOL     OW16939   8.484   3.181   8.429
38311SOL    HW116940   8.410   3.240   8.415
38311SOL    HW216941   8.534   3.221   8.500
38312SOL     OW16942   1.300   9.436   2.627
38312SOL    HW116943   1.293   9.377   2.552
38312SOL    HW216944   1.376   9.404   2.676
38313SOL     OW16945  10.377   8.036   4.352
38313SOL    HW116946  10.321   8.109   4.378
38313SOL    HW216947  10.425   8.068   4.276
38314SOL     OW16948   9.993   1.329  10.548
38314SOL    HW116949   9.989   1.396  10.480
38314SOL    HW216950   9.904   1.323  10.581
38315SOL     OW16951   3.229   8.306   7.970
38315SOL    HW116952   3.216   8.266   7.884
38315SOL    HW216953   3.287   8.380   7.953
38316SOL     OW16954  10.108   7.828   4.799
38316SOL    HW116955  10.081   7.856   4.886
38316SOL    HW216956  10.066   7.890   4.739
38317SOL     OW16957  10.039   0.878   4.744
38317SOL    HW116958  10.000   0.826   4.673
38317SOL    HW216959  10.030   0.969   4.715
38318SOL     OW16960   4.350   3.299   5.009
38318SOL    HW116961   4.286   3.325   4.943
38318SOL    HW216962   4.329   3.207   5.028
38319SOL     OW16963   7.874   0.276   9.921
38319SOL    HW116964   7.845   0.323   9.998
38319SOL    HW216965   7.942   0.331   9.883
38320SOL     OW16966   6.746   4.843   9.586
38320SOL    HW116967   6.755   4.803   9.673
38320SOL    HW216968   6.813   4.911   9.583
38321SOL     OW16969   6.249   1.448  10.629
38321SOL    HW116970   6.167   1.446  10.678
38321SOL    HW216971   6.285   1.535  10.644
38322SOL     OW16972   7.814   4.996   3.310
38322SOL    HW116973   7.789   5.083   3.339
38322SOL    HW216974   7.772   4.936   3.372
38323SOL     OW16975   0.565  11.057   4.579
38323SOL    HW116976   0.517  11.062   4.661
38323SOL    HW216977   0.497  11.050   4.512
38324SOL     OW16978   0.750   6.757   7.740
38324SOL    HW116979   0.791   6.840   7.763
38324SOL    HW216980   0.670   6.755   7.792
38325SOL     OW16981   9.809   0.635   6.126
38325SOL    HW116982   9.802   0.663   6.217
38325SOL    HW216983   9.821   0.540   6.131
38326SOL     OW16984   4.925   9.719  10.208
38326SOL    HW116985   4.953   9.715  10.299
38326SOL    HW216986   4.830   9.729  10.212
38327SOL     OW16987   6.029   5.944   9.350
38327SOL    HW116988   6.035   6.031   9.310
38327SOL    HW216989   5.971   5.895   9.291
38328SOL     OW16990  10.510   3.788   0.579
38328SOL    HW116991  10.544   3.865   0.623
38328SOL    HW216992  10.517   3.808   0.485
38329SOL     OW16993   9.874   3.396   9.734
38329SOL    HW116994   9.898   3.303   9.725
38329SOL    HW216995   9.955   3.439   9.762
38330SOL     OW16996   4.190   2.215   0.946
38330SOL    HW116997   4.193   2.168   1.029
38330SOL    HW216998   4.252   2.287   0.956
38331SOL     OW16999   5.177   1.397   5.416
38331SOL    HW117000   5.263   1.355   5.410
38331SOL    HW217001   5.143   1.393   5.326
38332SOL     OW17002   4.109  11.032   9.179
38332SOL    HW117003   4.088  11.115   9.222
38332SOL    HW217004   4.138  11.058   9.091
38333SOL     OW17005   2.633  10.526   6.563
38333SOL    HW117006   2.572  10.533   6.636
38333SOL    HW217007   2.585  10.478   6.495
38334SOL     OW17008   4.945   4.699  11.050
38334SOL    HW117009   4.932   4.787  11.016
38334SOL    HW217010   5.006   4.709  11.123
38335SOL     OW17011   9.841   7.989   5.746
38335SOL    HW117012   9.786   8.059   5.781
38335SOL    HW217013   9.779   7.925   5.711
38336SOL     OW17014   8.430   9.469   6.139
38336SOL    HW117015   8.398   9.426   6.218
38336SOL    HW217016   8.435   9.562   6.161
38337SOL     OW17017   2.944   6.337   7.866
38337SOL    HW117018   3.037   6.316   7.865
38337SOL    HW217019   2.900   6.252   7.867
38338SOL     OW17020   6.985   3.175   2.713
38338SOL    HW117021   6.890   3.173   2.706
38338SOL    HW217022   7.002   3.211   2.800
38339SOL     OW17023   9.074   7.240   7.567
38339SOL    HW117024   9.014   7.166   7.560
38339SOL    HW217025   9.085   7.253   7.661
38340SOL     OW17026   2.905   1.271   3.432
38340SOL    HW117027   2.965   1.225   3.373
38340SOL    HW217028   2.959   1.338   3.473
38341SOL     OW17029   9.149   5.443   8.297
38341SOL    HW117030   9.156   5.531   8.333
38341SOL    HW217031   9.065   5.442   8.251
38342SOL     OW17032   1.304   3.090   7.823
38342SOL    HW117033   1.344   3.095   7.910
38342SOL    HW217034   1.215   3.123   7.835
38343SOL     OW17035   9.279   1.081  10.263
38343SOL    HW117036   9.186   1.075  10.241
38343SOL    HW217037   9.321   1.107  10.181
38344SOL     OW17038   2.509   8.946   4.797
38344SOL    HW117039   2.564   8.930   4.874
38344SOL    HW217040   2.567   8.990   4.735
38345SOL     OW17041   0.450   8.395   3.364
38345SOL    HW117042   0.478   8.347   3.442
38345SOL    HW217043   0.450   8.487   3.391
38346SOL     OW17044   0.365   1.108  10.026
38346SOL    HW117045   0.389   1.072  10.111
38346SOL    HW217046   0.338   1.031   9.975
38347SOL     OW17047   3.919   9.231   4.078
38347SOL    HW117048   3.901   9.147   4.035
38347SOL    HW217049   3.851   9.290   4.045
38348SOL     OW17050   9.577   6.866   8.550
38348SOL    HW117051   9.601   6.784   8.505
38348SOL    HW217052   9.660   6.899   8.584
38349SOL     OW17053   9.258   3.371   9.831
38349SOL    HW117054   9.184   3.339   9.779
38349SOL    HW217055   9.275   3.459   9.797
38350SOL     OW17056   5.237   1.862   1.311
38350SOL    HW117057   5.184   1.941   1.309
38350SOL    HW217058   5.173   1.791   1.314
38351SOL     OW17059   1.670   8.293   9.429
38351SOL    HW117060   1.758   8.326   9.409
38351SOL    HW217061   1.670   8.203   9.395
38352SOL     OW17062   9.054   7.410  10.303
38352SOL    HW117063   9.060   7.357  10.382
38352SOL    HW217064   9.090   7.495  10.328
38353SOL     OW17065  10.377   0.921  10.909
38353SOL    HW117066  10.451   0.960  10.862
38353SOL    HW217067  10.344   0.853  10.849
38354SOL     OW17068  10.230   7.115   0.052
38354SOL    HW117069  10.304   7.056   0.070
38354SOL    HW217070  10.195   7.085  -0.032
38355SOL     OW17071   0.983   8.536   7.688
38355SOL    HW117072   1.030   8.485   7.621
38355SOL    HW217073   0.967   8.620   7.646
38356SOL     OW17074   1.203   2.565   2.011
38356SOL    HW117075   1.269   2.504   1.976
38356SOL    HW217076   1.161   2.516   2.082
38357SOL     OW17077   9.400   6.729   1.577
38357SOL    HW117078   9.331   6.792   1.557
38357SOL    HW217079   9.373   6.648   1.533
38358SOL     OW17080   0.635   7.161   4.103
38358SOL    HW117081   0.541   7.143   4.095
38358SOL    HW217082   0.673   7.077   4.129
38359SOL     OW17083   8.079   0.430   6.613
38359SOL    HW117084   8.052   0.518   6.640
38359SOL    HW217085   8.166   0.419   6.651
38360SOL     OW17086   0.147   4.943   9.129
38360SOL    HW117087   0.155   4.937   9.224
38360SOL    HW217088   0.153   4.852   9.099
38361SOL     OW17089   5.174   0.245   8.175
38361SOL    HW117090   5.112   0.312   8.202
38361SOL    HW217091   5.188   0.262   8.082
38362SOL     OW17092   9.423   8.104   1.287
38362SOL    HW117093   9.398   8.011   1.288
38362SOL    HW217094   9.343   8.150   1.260
38363SOL     OW17095  11.071   5.411   5.728
38363SOL    HW117096  11.122   5.391   5.807
38363SOL    HW217097  11.137   5.441   5.665
38364SOL     OW17098   6.379   4.552   6.495
38364SOL    HW117099   6.436   4.564   6.419
38364SOL    HW217100   6.425   4.595   6.567
38365SOL     OW17101   8.870   6.627  10.619
38365SOL    HW117102   8.958   6.607  10.651
38365SOL    HW217103   8.866   6.722  10.618
38366SOL     OW17104   0.911   5.213   7.473
38366SOL    HW117105   0.940   5.263   7.549
38366SOL    HW217106   0.962   5.248   7.400
38367SOL     OW17107   3.583   3.991   2.217
38367SOL    HW117108   3.650   3.988   2.285
38367SOL    HW217109   3.606   4.067   2.164
38368SOL     OW17110   7.751   7.342   6.983
38368SOL    HW117111   7.679   7.312   6.928
38368SOL    HW217112   7.829   7.330   6.929
38369SOL     OW17113  10.697   3.147   9.594
38369SOL    HW117114  10.620   3.203   9.601
38369SOL    HW217115  10.742   3.178   9.515
38370SOL     OW17116   1.307   7.111   6.312
38370SOL    HW117117   1.344   7.059   6.383
38370SOL    HW217118   1.215   7.084   6.308
38371SOL     OW17119   2.476   8.720   6.616
38371SOL    HW117120   2.408   8.667   6.574
38371SOL    HW217121   2.556   8.668   6.607
38372SOL     OW17122  10.196   3.117   3.960
38372SOL    HW117123  10.264   3.181   3.941
38372SOL    HW217124  10.201   3.055   3.887
38373SOL     OW17125   6.970   8.549  10.954
38373SOL    HW117126   7.025   8.617  10.915
38373SOL    HW217127   6.882   8.568  10.922
38374SOL     OW17128   8.666   1.923   6.413
38374SOL    HW117129   8.709   1.995   6.458
38374SOL    HW217130   8.730   1.852   6.415
38375SOL     OW17131   1.009   0.094   0.599
38375SOL    HW117132   0.985   0.098   0.506
38375SOL    HW217133   1.097   0.057   0.599
38376SOL     OW17134   2.585   5.270   5.259
38376SOL    HW117135   2.602   5.189   5.307
38376SOL    HW217136   2.539   5.326   5.321
38377SOL     OW17137   8.108   5.144   3.253
38377SOL    HW117138   8.193   5.113   3.285
38377SOL    HW217139   8.055   5.064   3.246
38378SOL     OW17140   5.566   5.262   9.422
38378SOL    HW117141   5.531   5.258   9.511
38378SOL    HW217142   5.655   5.295   9.433
38379SOL     OW17143   8.695   5.184   6.584
38379SOL    HW117144   8.767   5.224   6.535
38379SOL    HW217145   8.618   5.236   6.561
38380SOL     OW17146   8.933   6.409   7.470
38380SOL    HW117147   8.879   6.459   7.531
38380SOL    HW217148   8.895   6.427   7.384
38381SOL     OW17149   5.858   3.001   1.637
38381SOL    HW117150   5.894   3.024   1.722
38381SOL    HW217151   5.786   2.941   1.656
38382SOL     OW17152  10.376   2.690   5.657
38382SOL    HW117153  10.440   2.713   5.724
38382SOL    HW217154  10.293   2.685   5.703
38383SOL     OW17155  10.924   9.287   4.576
38383SOL    HW117156  10.935   9.343   4.652
38383SOL    HW217157  10.972   9.331   4.506
38384SOL     OW17158   7.124   0.110   6.973
38384SOL    HW117159   7.128   0.162   7.052
38384SOL    HW217160   7.066   0.159   6.914
38385SOL     OW17161   7.229   4.343  10.916
38385SOL    HW117162   7.183   4.417  10.954
38385SOL    HW217163   7.263   4.294  10.991
38386SOL     OW17164   5.596   9.377   7.648
38386SOL    HW117165   5.521   9.328   7.681
38386SOL    HW217166   5.592   9.461   7.694
38387SOL     OW17167   8.874   2.561   8.385
38387SOL    HW117168   8.905   2.470   8.390
38387SOL    HW217169   8.801   2.557   8.323
38388SOL     OW17170   9.786   7.873   1.711
38388SOL    HW117171   9.722   7.933   1.749
38388SOL    HW217172   9.868   7.895   1.755
38389SOL     OW17173  10.944   0.079   6.009
38389SOL    HW117174  10.908   0.111   5.926
38389SOL    HW217175  10.958   0.158   6.061
38390SOL     OW17176   5.711   2.151   9.546
38390SOL    HW117177   5.784   2.207   9.520
38390SOL    HW217178   5.674   2.120   9.463
38391SOL     OW17179   1.315   4.759   0.641
38391SOL    HW117180   1.239   4.813   0.662
38391SOL    HW217181   1.350   4.796   0.560
38392SOL     OW17182   8.037   4.430   9.219
38392SOL    HW117183   8.091   4.423   9.297
38392SOL    HW217184   7.959   4.476   9.247
38393SOL     OW17185   9.556   3.108   9.694
38393SOL    HW117186   9.473   3.084   9.734
38393SOL    HW217187   9.622   3.060   9.745
38394SOL     OW17188   6.146   3.186   3.290
38394SOL    HW117189   6.241   3.185   3.302
38394SOL    HW217190   6.123   3.094   3.275
38395SOL     OW17191   3.591   3.568   9.103
38395SOL    HW117192   3.590   3.493   9.163
38395SOL    HW217193   3.663   3.549   9.043
38396SOL     OW17194   0.776  10.044   8.990
38396SOL    HW117195   0.868  10.020   9.001
38396SOL    HW217196   0.764  10.046   8.895
38397SOL     OW17197   9.036   1.549   0.294
38397SOL    HW117198   9.130   1.536   0.305
38397SOL    HW217199   9.003   1.463   0.266
38398SOL     OW17200   0.100   3.821  10.195
38398SOL    HW117201   0.078   3.861  10.111
38398SOL    HW217202   0.064   3.732  10.189
38399SOL     OW17203   9.867   5.405   7.913
38399SOL    HW117204   9.914   5.482   7.944
38399SOL    HW217205   9.934   5.353   7.869
38400SOL     OW17206   2.414   4.166   4.744
38400SOL    HW117207   2.336   4.126   4.704
38400SOL    HW217208   2.461   4.204   4.670
38401SOL     OW17209   8.421   2.914   2.033
38401SOL    HW117210   8.326   2.911   2.040
38401SOL    HW217211   8.452   2.906   2.123
38402SOL     OW17212   9.493   3.056   9.358
38402SOL    HW117213   9.461   3.001   9.286
38402SOL    HW217214   9.540   3.127   9.314
38403SOL     OW17215   8.756   1.342   4.884
38403SOL    HW117216   8.794   1.307   4.803
38403SOL    HW217217   8.829   1.388   4.926
38404SOL     OW17218   4.430   5.163   2.535
38404SOL    HW117219   4.512   5.143   2.580
38404SOL    HW217220   4.444   5.249   2.497
38405SOL     OW17221   1.043   3.641   2.539
38405SOL    HW117222   1.121   3.618   2.487
38405SOL    HW217223   0.970   3.605   2.489
38406SOL     OW17224   0.350   3.447  10.315
38406SOL    HW117225   0.303   3.449  10.231
38406SOL    HW217226   0.375   3.538  10.331
38407SOL     OW17227   7.824   0.887   8.043
38407SOL    HW117228   7.744   0.938   8.031
38407SOL    HW217229   7.859   0.917   8.127
38408SOL     OW17230   9.150   6.028   4.333
38408SOL    HW117231   9.066   5.983   4.342
38408SOL    HW217232   9.192   6.017   4.418
38409SOL     OW17233   8.247   1.276   1.170
38409SOL    HW117234   8.191   1.201   1.148
38409SOL    HW217235   8.329   1.259   1.123
38410SOL     OW17236   9.596   7.704   4.841
38410SOL    HW117237   9.647   7.697   4.921
38410SOL    HW217238   9.661   7.722   4.773
38411SOL     OW17239  10.158   9.280   6.539
38411SOL    HW117240  10.227   9.270   6.604
38411SOL    HW217241  10.143   9.374   6.534
38412SOL     OW17242   4.210   7.658   1.197
38412SOL    HW117243   4.242   7.748   1.191
38412SOL    HW217244   4.198   7.642   1.290
38413SOL     OW17245   5.885   0.407   7.208
38413SOL    HW117246   5.870   0.496   7.177
38413SOL    HW217247   5.971   0.383   7.172
38414SOL     OW17248   3.974   1.115   0.972
38414SOL    HW117249   4.023   1.117   0.889
38414SOL    HW217250   4.039   1.089   1.037
38415SOL     OW17251   2.610   5.245   7.653
38415SOL    HW117252   2.584   5.255   7.744
38415SOL    HW217253   2.643   5.331   7.627
38416SOL     OW17254   7.369   6.402   4.375
38416SOL    HW117255   7.339   6.315   4.401
38416SOL    HW217256   7.446   6.418   4.430
38417SOL     OW17257   3.318   4.104   1.855
38417SOL    HW117258   3.303   4.168   1.924
38417SOL    HW217259   3.256   4.128   1.786
38418SOL     OW17260   1.633   7.560   8.857
38418SOL    HW117261   1.693   7.632   8.838
38418SOL    HW217262   1.548   7.590   8.825
38419SOL     OW17263  10.605   0.447   0.865
38419SOL    HW117264  10.662   0.508   0.912
38419SOL    HW217265  10.665   0.396   0.810
38420SOL     OW17266   2.683   1.593   6.982
38420SOL    HW117267   2.651   1.524   6.923
38420SOL    HW217268   2.759   1.554   7.025
38421SOL     OW17269   9.262   4.319   7.459
38421SOL    HW117270   9.334   4.318   7.522
38421SOL    HW217271   9.305   4.338   7.375
38422SOL     OW17272   9.803   3.983   1.045
38422SOL    HW117273   9.732   3.965   1.106
38422SOL    HW217274   9.852   4.055   1.085
38423SOL     OW17275   8.351   8.055   5.050
38423SOL    HW117276   8.440   8.021   5.043
38423SOL    HW217277   8.350   8.131   4.992
38424SOL     OW17278   9.433   2.951   1.318
38424SOL    HW117279   9.418   2.881   1.381
38424SOL    HW217280   9.368   2.935   1.249
38425SOL     OW17281   3.270   5.540   0.270
38425SOL    HW117282   3.178   5.556   0.250
38425SOL    HW217283   3.310   5.522   0.185
38426SOL     OW17284   1.633   2.859   0.617
38426SOL    HW117285   1.576   2.929   0.647
38426SOL    HW217286   1.709   2.904   0.579
38427SOL     OW17287   8.720   5.121  10.599
38427SOL    HW117288   8.630   5.090  10.597
38427SOL    HW217289   8.772   5.045  10.571
38428SOL     OW17290   4.182   2.443   5.216
38428SOL    HW117291   4.119   2.487   5.159
38428SOL    HW217292   4.129   2.402   5.284
38429SOL     OW17293   4.829   1.748   0.313
38429SOL    HW117294   4.872   1.766   0.229
38429SOL    HW217295   4.898   1.760   0.378
38430SOL     OW17296   3.234  11.069   9.711
38430SOL    HW117297   3.190  11.154   9.712
38430SOL    HW217298   3.316  11.083   9.758
38431SOL     OW17299   7.193   5.519   3.816
38431SOL    HW117300   7.110   5.514   3.768
38431SOL    HW217301   7.173   5.483   3.902
38432SOL     OW17302   7.224   3.112  10.760
38432SOL    HW117303   7.315   3.138  10.745
38432SOL    HW217304   7.221   3.085  10.851
38433SOL     OW17305   8.754  10.828   0.196
38433SOL    HW117306   8.702  10.805   0.273
38433SOL    HW217307   8.771  10.744   0.153
38434SOL     OW17308  10.210  10.950   1.566
38434SOL    HW117309  10.300  10.955   1.597
38434SOL    HW217310  10.215  10.975   1.474
38435SOL     OW17311   0.593   2.247   8.437
38435SOL    HW117312   0.546   2.293   8.506
38435SOL    HW217313   0.610   2.314   8.371
38436SOL     OW17314   0.488  -0.000   7.285
38436SOL    HW117315   0.501   0.084   7.329
38436SOL    HW217316   0.559  -0.005   7.221
38437SOL     OW17317   9.253   3.487   0.421
38437SOL    HW117318   9.322   3.479   0.487
38437SOL    HW217319   9.172   3.475   0.470
38438SOL     OW17320   0.503   0.494   6.851
38438SOL    HW117321   0.524   0.577   6.893
38438SOL    HW217322   0.410   0.501   6.829
38439SOL     OW17323   8.529  10.192   6.296
38439SOL    HW117324   8.444  10.164   6.263
38439SOL    HW217325   8.557  10.120   6.352
38440SOL     OW17326   4.921  11.097   6.261
38440SOL    HW117327   4.922  11.002   6.273
38440SOL    HW217328   5.010  11.125   6.282
38441SOL     OW17329   8.193   0.236  10.042
38441SOL    HW117330   8.163   0.309   9.988
38441SOL    HW217331   8.253   0.187   9.985
38442SOL     OW17332   9.158   0.652  10.747
38442SOL    HW117333   9.095   0.601  10.696
38442SOL    HW217334   9.188   0.592  10.815
38443SOL     OW17335   2.374   1.219   3.249
38443SOL    HW117336   2.368   1.271   3.328
38443SOL    HW217337   2.460   1.240   3.213
38444SOL     OW17338   5.639   3.333   9.699
38444SOL    HW117339   5.702   3.402   9.677
38444SOL    HW217340   5.689   3.271   9.752
38445SOL     OW17341   8.418   1.066   8.598
38445SOL    HW117342   8.337   1.017   8.612
38445SOL    HW217343   8.423   1.077   8.503
38446SOL     OW17344   8.414  10.598  10.420
38446SOL    HW117345   8.407  10.576  10.327
38446SOL    HW217346   8.452  10.520  10.460
38447SOL     OW17347   7.974   5.339   6.941
38447SOL    HW117348   7.980   5.381   6.855
38447SOL    HW217349   7.889   5.367   6.975
38448SOL     OW17350   6.540   8.911   6.960
38448SOL    HW117351   6.623   8.894   6.916
38448SOL    HW217352   6.495   8.826   6.960
38449SOL     OW17353   0.076   0.194   3.626
38449SOL    HW117354   0.090   0.107   3.587
38449SOL    HW217355  -0.019   0.202   3.633
38450SOL     OW17356   9.678   9.631   0.328
38450SOL    HW117357   9.636   9.657   0.246
38450SOL    HW217358   9.641   9.689   0.394
38451SOL     OW17359   9.740   7.481   0.555
38451SOL    HW117360   9.800   7.556   0.551
38451SOL    HW217361   9.654   7.519   0.572
38452SOL     OW17362   4.769   0.438   1.314
38452SOL    HW117363   4.743   0.530   1.310
38452SOL    HW217364   4.858   0.436   1.277
38453SOL     OW17365   8.759   1.123  10.449
38453SOL    HW117366   8.766   1.033  10.415
38453SOL    HW217367   8.669   1.129  10.482
38454SOL     OW17368  10.701   0.996   1.949
38454SOL    HW117369  10.755   0.977   2.026
38454SOL    HW217370  10.755   0.969   1.874
38455SOL     OW17371  10.057   0.590   7.642
38455SOL    HW117372  10.109   0.650   7.694
38455SOL    HW217373  10.067   0.621   7.552
38456SOL     OW17374   2.332   2.586   9.263
38456SOL    HW117375   2.396   2.518   9.285
38456SOL    HW217376   2.251   2.538   9.247
38457SOL     OW17377   3.160   2.723   7.658
38457SOL    HW117378   3.117   2.749   7.576
38457SOL    HW217379   3.253   2.718   7.635
38458SOL     OW17380   6.762   9.578   5.591
38458SOL    HW117381   6.763   9.553   5.683
38458SOL    HW217382   6.730   9.668   5.591
38459SOL     OW17383  10.440   3.699   8.533
38459SOL    HW117384  10.504   3.636   8.566
38459SOL    HW217385  10.355   3.661   8.555
38460SOL     OW17386   8.054   4.830   6.067
38460SOL    HW117387   8.062   4.774   5.989
38460SOL    HW217388   8.032   4.769   6.138
38461SOL     OW17389   8.747   0.404   0.535
38461SOL    HW117390   8.680   0.465   0.564
38461SOL    HW217391   8.738   0.402   0.439
38462SOL     OW17392   9.873   5.631  10.818
38462SOL    HW117393   9.849   5.555  10.764
38462SOL    HW217394   9.956   5.606  10.858
38463SOL     OW17395   1.678   7.879   6.014
38463SOL    HW117396   1.625   7.824   6.072
38463SOL    HW217397   1.641   7.865   5.927
38464SOL     OW17398   0.868  10.921   5.557
38464SOL    HW117399   0.893  11.012   5.572
38464SOL    HW217400   0.887  10.906   5.464
38465SOL     OW17401   0.523   5.239   9.590
38465SOL    HW117402   0.430   5.218   9.597
38465SOL    HW217403   0.566   5.177   9.649
38466SOL     OW17404   2.885   2.149   9.109
38466SOL    HW117405   2.952   2.210   9.139
38466SOL    HW217406   2.875   2.087   9.181
38467SOL     OW17407   2.432   5.030   3.886
38467SOL    HW117408   2.498   5.052   3.951
38467SOL    HW217409   2.359   4.995   3.936
38468SOL     OW17410   1.799   0.849  11.032
38468SOL    HW117411   1.760   0.764  11.053
38468SOL    HW217412   1.885   0.827  10.995
38469SOL     OW17413   9.905   2.672   4.323
38469SOL    HW117414   9.851   2.748   4.302
38469SOL    HW217415   9.950   2.651   4.241
38470SOL     OW17416   8.165   4.190   1.132
38470SOL    HW117417   8.195   4.102   1.108
38470SOL    HW217418   8.143   4.184   1.225
38471SOL     OW17419   1.356   0.870   6.350
38471SOL    HW117420   1.302   0.877   6.271
38471SOL    HW217421   1.304   0.911   6.419
38472SOL     OW17422   8.452   4.385  10.518
38472SOL    HW117423   8.447   4.297  10.480
38472SOL    HW217424   8.419   4.443  10.449
38473SOL     OW17425   6.192   7.899   1.638
38473SOL    HW117426   6.252   7.878   1.709
38473SOL    HW217427   6.111   7.852   1.659
38474SOL     OW17428   7.177   2.859   7.507
38474SOL    HW117429   7.224   2.907   7.438
38474SOL    HW217430   7.088   2.893   7.504
38475SOL     OW17431   6.923   9.945   0.083
38475SOL    HW117432   6.832   9.949   0.055
38475SOL    HW217433   6.928  10.004   0.158
38476SOL     OW17434   0.825  10.647   8.187
38476SOL    HW117435   0.754  10.662   8.249
38476SOL    HW217436   0.823  10.553   8.170
38477SOL     OW17437   1.832   3.267   8.282
38477SOL    HW117438   1.759   3.327   8.293
38477SOL    HW217439   1.910   3.321   8.295
38478SOL     OW17440  10.157   1.125   6.883
38478SOL    HW117441  10.137   1.080   6.801
38478SOL    HW217442  10.250   1.109   6.897
38479SOL     OW17443   3.914   0.763   1.827
38479SOL    HW117444   3.942   0.770   1.918
38479SOL    HW217445   3.936   0.673   1.802
38480SOL     OW17446  10.409   6.010   2.114
38480SOL    HW117447  10.395   5.925   2.156
38480SOL    HW217448  10.501   6.030   2.130
38481SOL     OW17449   1.874   7.269   6.845
38481SOL    HW117450   1.779   7.263   6.833
38481SOL    HW217451   1.899   7.350   6.801
38482SOL     OW17452   7.320   4.941   1.483
38482SOL    HW117453   7.261   4.891   1.426
38482SOL    HW217454   7.287   4.926   1.571
38483SOL     OW17455   5.300   9.633   0.465
38483SOL    HW117456   5.337   9.639   0.553
38483SOL    HW217457   5.375   9.610   0.409
38484SOL     OW17458   7.545   1.549  10.422
38484SOL    HW117459   7.524   1.463  10.383
38484SOL    HW217460   7.594   1.594  10.353
38485SOL     OW17461   2.928   6.004   4.908
38485SOL    HW117462   2.860   5.942   4.881
38485SOL    HW217463   2.957   5.972   4.993
38486SOL     OW17464   4.901  10.014   1.593
38486SOL    HW117465   4.931  10.074   1.524
38486SOL    HW217466   4.857  10.070   1.656
38487SOL     OW17467   4.469   2.835   0.222
38487SOL    HW117468   4.530   2.906   0.203
38487SOL    HW217469   4.431   2.857   0.307
38488SOL     OW17470   9.770   9.358   0.867
38488SOL    HW117471   9.848   9.368   0.812
38488SOL    HW217472   9.715   9.296   0.819
38489SOL     OW17473   5.119   1.939  10.269
38489SOL    HW117474   5.025   1.926  10.262
38489SOL    HW217475   5.155   1.892  10.193
38490SOL     OW17476   8.745   4.035   2.647
38490SOL    HW117477   8.680   4.065   2.583
38490SOL    HW217478   8.751   3.940   2.632
38491SOL     OW17479   2.039   3.610   4.296
38491SOL    HW117480   2.008   3.561   4.220
38491SOL    HW217481   1.963   3.660   4.325
38492SOL     OW17482   6.415   0.102   2.633
38492SOL    HW117483   6.421   0.096   2.537
38492SOL    HW217484   6.483   0.165   2.657
38493SOL     OW17485   7.546   4.651   0.454
38493SOL    HW117486   7.478   4.634   0.519
38493SOL    HW217487   7.559   4.746   0.455
38494SOL     OW17488   7.524   2.822   0.995
38494SOL    HW117489   7.534   2.881   1.069
38494SOL    HW217490   7.610   2.823   0.952
38495SOL     OW17491   1.108   6.453   1.829
38495SOL    HW117492   1.029   6.485   1.872
38495SOL    HW217493   1.179   6.504   1.867
38496SOL     OW17494   7.512   1.456   0.945
38496SOL    HW117495   7.593   1.457   0.996
38496SOL    HW217496   7.463   1.532   0.975
38497SOL     OW17497   8.623   8.088   9.214
38497SOL    HW117498   8.552   8.043   9.259
38497SOL    HW217499   8.698   8.078   9.272
38498SOL     OW17500   3.929   2.314   4.049
38498SOL    HW117501   3.879   2.341   3.972
38498SOL    HW217502   3.883   2.237   4.082
38499SOL     OW17503   6.060   3.393  10.052
38499SOL    HW117504   6.077   3.373  10.144
38499SOL    HW217505   5.967   3.372  10.040
38500SOL     OW17506   8.294   5.731   7.542
38500SOL    HW117507   8.384   5.748   7.515
38500SOL    HW217508   8.296   5.641   7.574
38501SOL     OW17509  10.367   7.240   4.429
38501SOL    HW117510  10.400   7.287   4.352
38501SOL    HW217511  10.433   7.256   4.496
38502SOL     OW17512   1.734   1.126   0.551
38502SOL    HW117513   1.660   1.080   0.512
38502SOL    HW217514   1.810   1.075   0.524
38503SOL     OW17515   2.043   3.180   3.132
38503SOL    HW117516   2.107   3.109   3.124
38503SOL    HW217517   2.068   3.226   3.212
38504SOL     OW17518   9.143   5.888   0.472
38504SOL    HW117519   9.053   5.892   0.505
38504SOL    HW217520   9.135   5.905   0.378
38505SOL     OW17521   4.043   9.808  10.323
38505SOL    HW117522   4.006   9.815  10.411
38505SOL    HW217523   4.042   9.897  10.289
38506SOL     OW17524   8.608   9.616  10.421
38506SOL    HW117525   8.603   9.603  10.516
38506SOL    HW217526   8.574   9.704  10.406
38507SOL     OW17527   7.252   6.628   4.052
38507SOL    HW117528   7.217   6.604   4.138
38507SOL    HW217529   7.320   6.562   4.035
38508SOL     OW17530   0.008   1.426   3.852
38508SOL    HW117531  -0.065   1.411   3.912
38508SOL    HW217532  -0.033   1.462   3.773
38509SOL     OW17533   5.299   0.292  10.812
38509SOL    HW117534   5.294   0.287  10.716
38509SOL    HW217535   5.307   0.385  10.831
38510SOL     OW17536   9.334   7.515   7.446
38510SOL    HW117537   9.423   7.530   7.477
38510SOL    HW217538   9.321   7.420   7.456
38511SOL     OW17539   9.934   3.325   8.485
38511SOL    HW117540   9.880   3.396   8.518
38511SOL    HW217541   9.874   3.251   8.475
38512SOL     OW17542   7.630   1.987  10.231
38512SOL    HW117543   7.646   2.060  10.291
38512SOL    HW217544   7.713   1.975  10.185
38513SOL     OW17545   3.042   8.817   5.430
38513SOL    HW117546   3.085   8.776   5.355
38513SOL    HW217547   3.109   8.816   5.499
38514SOL     OW17548  10.843   0.195   3.433
38514SOL    HW117549  10.863   0.233   3.518
38514SOL    HW217550  10.912   0.228   3.375
38515SOL     OW17551   0.840   2.717  11.027
38515SOL    HW117552   0.765   2.673  10.986
38515SOL    HW217553   0.877   2.771  10.957
38516SOL     OW17554   5.741   3.332   3.756
38516SOL    HW117555   5.713   3.269   3.822
38516SOL    HW217556   5.827   3.301   3.728
38517SOL     OW17557   7.361   3.338   8.338
38517SOL    HW117558   7.382   3.429   8.358
38517SOL    HW217559   7.403   3.287   8.407
38518SOL     OW17560   7.163   7.696   5.932
38518SOL    HW117561   7.209   7.614   5.915
38518SOL    HW217562   7.076   7.683   5.895
38519SOL     OW17563   9.784   1.230   2.449
38519SOL    HW117564   9.797   1.291   2.376
38519SOL    HW217565   9.756   1.148   2.407
38520SOL     OW17566   3.247   3.149   9.912
38520SOL    HW117567   3.315   3.211   9.887
38520SOL    HW217568   3.176   3.203   9.946
38521SOL     OW17569   8.135   0.758   7.207
38521SOL    HW117570   8.079   0.773   7.131
38521SOL    HW217571   8.078   0.718   7.272
38522SOL     OW17572   6.655   3.596   3.453
38522SOL    HW117573   6.606   3.577   3.373
38522SOL    HW217574   6.682   3.510   3.485
38523SOL     OW17575   4.859   6.154   1.816
38523SOL    HW117576   4.819   6.158   1.729
38523SOL    HW217577   4.793   6.112   1.871
38524SOL     OW17578   9.495   0.854   8.350
38524SOL    HW117579   9.406   0.818   8.353
38524SOL    HW217580   9.487   0.934   8.298
38525SOL     OW17581   0.257   3.533   2.248
38525SOL    HW117582   0.253   3.534   2.152
38525SOL    HW217583   0.179   3.483   2.274
38526SOL     OW17584   9.748   2.836   6.644
38526SOL    HW117585   9.739   2.754   6.595
38526SOL    HW217586   9.822   2.820   6.703
38527SOL     OW17587  10.598   8.493   2.366
38527SOL    HW117588  10.613   8.511   2.458
38527SOL    HW217589  10.578   8.399   2.362
38528SOL     OW17590   0.964   0.712   3.666
38528SOL    HW117591   0.937   0.622   3.684
38528SOL    HW217592   0.904   0.766   3.717
38529SOL     OW17593   5.759   4.996   1.957
38529SOL    HW117594   5.780   4.991   2.050
38529SOL    HW217595   5.664   5.007   1.954
38530SOL     OW17596   7.982  10.100   3.124
38530SOL    HW117597   8.046  10.167   3.146
38530SOL    HW217598   8.032  10.033   3.078
38531SOL     OW17599   2.338   2.064   0.254
38531SOL    HW117600   2.404   2.005   0.291
38531SOL    HW217601   2.386   2.145   0.237
38532SOL     OW17602   2.693   0.985   3.357
38532SOL    HW117603   2.618   0.942   3.399
38532SOL    HW217604   2.670   1.077   3.354
38533SOL     OW17605   1.998  10.512   7.249
38533SOL    HW117606   1.910  10.513   7.286
38533SOL    HW217607   2.043  10.585   7.292
38534SOL     OW17608   1.950   8.625   9.509
38534SOL    HW117609   1.924   8.716   9.498
38534SOL    HW217610   1.968   8.616   9.602
38535SOL     OW17611   5.309  10.350   4.170
38535SOL    HW117612   5.329  10.380   4.258
38535SOL    HW217613   5.271  10.263   4.182
38536SOL     OW17614   7.862   4.759   5.452
38536SOL    HW117615   7.883   4.723   5.365
38536SOL    HW217616   7.772   4.732   5.467
38537SOL     OW17617   3.182   9.353   2.475
38537SOL    HW117618   3.263   9.305   2.455
38537SOL    HW217619   3.211   9.429   2.525
38538SOL     OW17620   9.857   1.426   8.460
38538SOL    HW117621   9.928   1.362   8.467
38538SOL    HW217622   9.811   1.401   8.380
38539SOL     OW17623   2.557   0.276   5.560
38539SOL    HW117624   2.558   0.363   5.520
38539SOL    HW217625   2.466   0.247   5.553
38540SOL     OW17626   1.069   2.826   3.516
38540SOL    HW117627   1.107   2.849   3.600
38540SOL    HW217628   1.117   2.879   3.452
38541SOL     OW17629   9.560   7.191   0.574
38541SOL    HW117630   9.624   7.253   0.538
38541SOL    HW217631   9.515   7.156   0.497
38542SOL     OW17632  10.142   1.218   9.338
38542SOL    HW117633  10.166   1.186   9.251
38542SOL    HW217634  10.224   1.251   9.375
38543SOL     OW17635   8.796   8.993   2.189
38543SOL    HW117636   8.848   8.914   2.202
38543SOL    HW217637   8.814   9.047   2.266
38544SOL     OW17638   8.470   0.130   0.622
38544SOL    HW117639   8.449   0.202   0.681
38544SOL    HW217640   8.552   0.094   0.656
38545SOL     OW17641   8.180  10.701   4.379
38545SOL    HW117642   8.101  10.717   4.430
38545SOL    HW217643   8.203  10.610   4.398
38546SOL     OW17644   4.848   0.557   6.133
38546SOL    HW117645   4.839   0.629   6.070
38546SOL    HW217646   4.838   0.477   6.080
38547SOL     OW17647   8.233   0.456   0.708
38547SOL    HW117648   8.294   0.498   0.647
38547SOL    HW217649   8.146   0.480   0.675
38548SOL     OW17650   4.476   8.127   4.586
38548SOL    HW117651   4.454   8.065   4.655
38548SOL    HW217652   4.395   8.137   4.536
38549SOL     OW17653   5.372   5.360   2.122
38549SOL    HW117654   5.369   5.333   2.214
38549SOL    HW217655   5.325   5.443   2.119
38550SOL     OW17656   7.431   6.990   5.526
38550SOL    HW117657   7.476   7.052   5.469
38550SOL    HW217658   7.403   6.920   5.467
38551SOL     OW17659   4.850  10.576   8.650
38551SOL    HW117660   4.909  10.542   8.582
38551SOL    HW217661   4.765  10.583   8.606
38552SOL     OW17662  10.511   1.356   0.729
38552SOL    HW117663  10.471   1.284   0.777
38552SOL    HW217664  10.443   1.385   0.669
38553SOL     OW17665   1.456   4.189  10.683
38553SOL    HW117666   1.540   4.156  10.716
38553SOL    HW217667   1.418   4.236  10.757
38554SOL     OW17668   7.100   1.884  10.810
38554SOL    HW117669   7.057   1.951  10.757
38554SOL    HW217670   7.085   1.911  10.900
38555SOL     OW17671   1.766   8.311   1.675
38555SOL    HW117672   1.799   8.222   1.658
38555SOL    HW217673   1.737   8.341   1.589
38556SOL     OW17674  10.160  10.383   7.894
38556SOL    HW117675  10.068  10.380   7.869
38556SOL    HW217676  10.195  10.459   7.847
38557SOL     OW17677   7.940  10.129   2.422
38557SOL    HW117678   7.957  10.201   2.482
38557SOL    HW217679   7.964  10.050   2.471
38558SOL     OW17680   8.964   8.107   5.324
38558SOL    HW117681   8.983   8.115   5.417
38558SOL    HW217682   9.034   8.156   5.281
38559SOL     OW17683   0.243   2.607   8.331
38559SOL    HW117684   0.278   2.616   8.419
38559SOL    HW217685   0.259   2.515   8.308
38560SOL     OW17686   7.788   2.905   9.263
38560SOL    HW117687   7.783   2.839   9.193
38560SOL    HW217688   7.786   2.854   9.344
38561SOL     OW17689   8.076   0.404   2.205
38561SOL    HW117690   8.048   0.483   2.251
38561SOL    HW217691   8.066   0.425   2.112
38562SOL     OW17692   8.977   0.410   1.684
38562SOL    HW117693   8.980   0.461   1.603
38562SOL    HW217694   9.006   0.470   1.752
38563SOL     OW17695   3.043   9.136   2.555
38563SOL    HW117696   3.118   9.079   2.535
38563SOL    HW217697   3.076   9.225   2.542
38564SOL     OW17698  10.638   9.018   4.962
38564SOL    HW117699  10.573   9.088   4.957
38564SOL    HW217700  10.693   9.041   5.037
38565SOL     OW17701   0.497   3.027   9.704
38565SOL    HW117702   0.543   2.943   9.702
38565SOL    HW217703   0.445   3.028   9.624
38566SOL     OW17704   2.074   9.962   1.906
38566SOL    HW117705   2.128  10.027   1.861
38566SOL    HW217706   2.070   9.993   1.996
38567SOL     OW17707   6.904   1.998   1.436
38567SOL    HW117708   6.901   2.030   1.346
38567SOL    HW217709   6.812   1.989   1.461
38568SOL     OW17710   7.558   6.358   7.380
38568SOL    HW117711   7.567   6.397   7.293
38568SOL    HW217712   7.485   6.297   7.371
38569SOL     OW17713   0.436   3.156   8.153
38569SOL    HW117714   0.377   3.230   8.148
38569SOL    HW217715   0.523   3.195   8.164
38570SOL     OW17716   0.802   2.637   2.087
38570SOL    HW117717   0.708   2.649   2.071
38570SOL    HW217718   0.836   2.602   2.004
38571SOL     OW17719   7.848   2.012   3.737
38571SOL    HW117720   7.822   2.001   3.828
38571SOL    HW217721   7.768   1.998   3.687
38572SOL     OW17722   6.957   2.648   5.343
38572SOL    HW117723   7.004   2.731   5.349
38572SOL    HW217724   6.900   2.646   5.420
38573SOL     OW17725   6.790   2.990   2.522
38573SOL    HW117726   6.855   2.943   2.469
38573SOL    HW217727   6.794   3.080   2.490
38574SOL     OW17728   0.753   9.743   8.166
38574SOL    HW117729   0.756   9.766   8.073
38574SOL    HW217730   0.719   9.653   8.167
38575SOL     OW17731   8.022  10.504   7.342
38575SOL    HW117732   7.928  10.510   7.323
38575SOL    HW217733   8.031  10.421   7.389
38576SOL     OW17734   5.863   4.862   1.519
38576SOL    HW117735   5.912   4.791   1.476
38576SOL    HW217736   5.828   4.914   1.446
38577SOL     OW17737   4.554   2.930  10.481
38577SOL    HW117738   4.596   3.006  10.441
38577SOL    HW217739   4.589   2.855  10.432
38578SOL     OW17740   4.630   6.994   5.270
38578SOL    HW117741   4.694   6.925   5.251
38578SOL    HW217742   4.642   7.057   5.199
38579SOL     OW17743   8.235   5.557   9.883
38579SOL    HW117744   8.238   5.514   9.797
38579SOL    HW217745   8.262   5.647   9.866
38580SOL     OW17746   9.596   1.679   6.757
38580SOL    HW117747   9.545   1.741   6.705
38580SOL    HW217748   9.673   1.660   6.702
38581SOL     OW17749   2.208  10.800   1.325
38581SOL    HW117750   2.129  10.810   1.377
38581SOL    HW217751   2.212  10.879   1.271
38582SOL     OW17752  10.243   0.815   9.762
38582SOL    HW117753  10.266   0.799   9.853
38582SOL    HW217754  10.216   0.906   9.759
38583SOL     OW17755  10.477   5.486   3.741
38583SOL    HW117756  10.392   5.528   3.730
38583SOL    HW217757  10.513   5.481   3.652
38584SOL     OW17758   6.196   1.984   0.116
38584SOL    HW117759   6.220   1.905   0.068
38584SOL    HW217760   6.125   1.956   0.174
38585SOL     OW17761   4.421   1.546   3.103
38585SOL    HW117762   4.397   1.619   3.046
38585SOL    HW217763   4.418   1.469   3.045
38586SOL     OW17764   3.720   4.400   2.888
38586SOL    HW117765   3.731   4.480   2.837
38586SOL    HW217766   3.759   4.420   2.973
38587SOL     OW17767   6.369   6.818  10.618
38587SOL    HW117768   6.414   6.786  10.539
38587SOL    HW217769   6.405   6.765  10.689
38588SOL     OW17770   4.242  10.735   6.241
38588SOL    HW117771   4.221  10.647   6.211
38588SOL    HW217772   4.229  10.732   6.335
38589SOL     OW17773   5.654   3.181   5.339
38589SOL    HW117774   5.665   3.134   5.256
38589SOL    HW217775   5.732   3.236   5.346
38590SOL     OW17776   9.266   1.527   7.642
38590SOL    HW117777   9.206   1.482   7.582
38590SOL    HW217778   9.228   1.614   7.652
38591SOL     OW17779   9.379   0.386   0.091
38591SOL    HW117780   9.471   0.398   0.068
38591SOL    HW217781   9.369   0.432   0.174
38592SOL     OW17782   6.015   1.934  10.903
38592SOL    HW117783   6.027   2.003  10.968
38592SOL    HW217784   5.921   1.916  10.904
38593SOL     OW17785   1.189   9.787   1.625
38593SOL    HW117786   1.259   9.732   1.589
38593SOL    HW217787   1.153   9.832   1.548
38594SOL     OW17788   5.178   2.363   3.245
38594SOL    HW117789   5.113   2.433   3.243
38594SOL    HW217790   5.132   2.287   3.209
38595SOL     OW17791   2.161   2.569   6.861
38595SOL    HW117792   2.195   2.479   6.853
38595SOL    HW217793   2.066   2.559   6.856
38596SOL     OW17794  10.152  10.433   4.288
38596SOL    HW117795  10.111  10.500   4.343
38596SOL    HW217796  10.080  10.374   4.265
38597SOL     OW17797   7.162   1.708   4.169
38597SOL    HW117798   7.195   1.644   4.105
38597SOL    HW217799   7.111   1.655   4.231
38598SOL     OW17800   6.647   7.634   3.394
38598SOL    HW117801   6.587   7.571   3.353
38598SOL    HW217802   6.644   7.613   3.487
38599SOL     OW17803   2.176   1.380   5.216
38599SOL    HW117804   2.167   1.359   5.123
38599SOL    HW217805   2.119   1.317   5.260
38600SOL     OW17806   8.733   4.678   3.099
38600SOL    HW117807   8.720   4.696   3.006
38600SOL    HW217808   8.758   4.585   3.102
38601SOL     OW17809  10.430   4.192   1.153
38601SOL    HW117810  10.466   4.105   1.169
38601SOL    HW217811  10.351   4.176   1.101
38602SOL     OW17812   5.145   1.667   5.452
38602SOL    HW117813   5.177   1.580   5.427
38602SOL    HW217814   5.065   1.649   5.501
38603SOL     OW17815   6.549   3.656   2.397
38603SOL    HW117816   6.601   3.613   2.465
38603SOL    HW217817   6.594   3.635   2.315
38604SOL     OW17818   2.958   0.627   0.620
38604SOL    HW117819   2.918   0.699   0.669
38604SOL    HW217820   2.970   0.662   0.531
38605SOL     OW17821   0.138   3.175   8.257
38605SOL    HW117822   0.044   3.189   8.246
38605SOL    HW217823   0.161   3.115   8.186
38606SOL     OW17824   7.346   6.676   2.146
38606SOL    HW117825   7.269   6.664   2.090
38606SOL    HW217826   7.419   6.640   2.094
38607SOL     OW17827   7.341   4.402   8.117
38607SOL    HW117828   7.434   4.390   8.137
38607SOL    HW217829   7.335   4.491   8.084
38608SOL     OW17830   7.067   5.886   3.784
38608SOL    HW117831   7.033   5.797   3.770
38608SOL    HW217832   7.135   5.875   3.851
38609SOL     OW17833   6.999   4.431   0.550
38609SOL    HW117834   6.933   4.442   0.618
38609SOL    HW217835   6.977   4.348   0.508
38610SOL     OW17836   0.234   6.090   7.147
38610SOL    HW117837   0.214   6.160   7.085
38610SOL    HW217838   0.329   6.086   7.148
38611SOL     OW17839   0.172   6.222  10.269
38611SOL    HW117840   0.116   6.144  10.259
38611SOL    HW217841   0.260   6.191  10.248
38612SOL     OW17842   5.987   0.235   4.540
38612SOL    HW117843   6.074   0.197   4.525
38612SOL    HW217844   5.988   0.263   4.631
38613SOL     OW17845   7.546  10.692   5.087
38613SOL    HW117846   7.588  10.639   5.154
38613SOL    HW217847   7.618  10.734   5.040
38614SOL     OW17848  10.343   4.228   0.733
38614SOL    HW117849  10.397   4.191   0.662
38614SOL    HW217850  10.381   4.314   0.749
38615SOL     OW17851   4.979   7.122  10.519
38615SOL    HW117852   4.965   7.051  10.582
38615SOL    HW217853   4.901   7.121  10.464
38616SOL     OW17854  10.186   5.875   6.443
38616SOL    HW117855  10.204   5.803   6.381
38616SOL    HW217856  10.259   5.935   6.430
38617SOL     OW17857   8.077   5.295   4.001
38617SOL    HW117858   8.150   5.336   3.955
38617SOL    HW217859   8.118   5.238   4.066
38618SOL     OW17860   4.725   5.019   4.148
38618SOL    HW117861   4.769   5.026   4.232
38618SOL    HW217862   4.796   5.002   4.085
38619SOL     OW17863   3.984   6.923   1.914
38619SOL    HW117864   3.990   6.838   1.959
38619SOL    HW217865   3.892   6.949   1.924
38620SOL     OW17866   5.268   2.936   5.555
38620SOL    HW117867   5.320   2.888   5.490
38620SOL    HW217868   5.263   3.025   5.521
38621SOL     OW17869   5.299   9.012   7.800
38621SOL    HW117870   5.363   8.959   7.751
38621SOL    HW217871   5.349   9.050   7.872
38622SOL     OW17872   0.175   5.994  10.076
38622SOL    HW117873   0.270   5.999  10.080
38622SOL    HW217874   0.154   6.014   9.984
38623SOL     OW17875  10.676   2.458   2.463
38623SOL    HW117876  10.679   2.418   2.550
38623SOL    HW217877  10.620   2.535   2.473
38624SOL     OW17878   3.105   3.687   0.377
38624SOL    HW117879   3.127   3.686   0.470
38624SOL    HW217880   3.162   3.754   0.339
38625SOL     OW17881   9.636   2.710   8.466
38625SOL    HW117882   9.654   2.787   8.412
38625SOL    HW217883   9.715   2.656   8.459
38626SOL     OW17884   2.439   2.679   3.502
38626SOL    HW117885   2.398   2.644   3.581
38626SOL    HW217886   2.447   2.773   3.519
38627SOL     OW17887   1.075   4.199   2.806
38627SOL    HW117888   0.995   4.221   2.758
38627SOL    HW217889   1.118   4.132   2.752
38628SOL     OW17890   9.341   6.461   7.821
38628SOL    HW117891   9.395   6.508   7.884
38628SOL    HW217892   9.271   6.422   7.873
38629SOL     OW17893  11.100   0.491   2.090
38629SOL    HW117894  11.079   0.484   2.183
38629SOL    HW217895  11.032   0.440   2.046
38630SOL     OW17896   4.087   4.144   3.453
38630SOL    HW117897   4.088   4.048   3.460
38630SOL    HW217898   4.179   4.169   3.456
38631SOL     OW17899   1.515   2.434   0.686
38631SOL    HW117900   1.425   2.463   0.670
38631SOL    HW217901   1.517   2.413   0.779
38632SOL     OW17902   1.822   2.149   9.844
38632SOL    HW117903   1.805   2.241   9.864
38632SOL    HW217904   1.813   2.104   9.927
38633SOL     OW17905   2.284   3.792  10.169
38633SOL    HW117906   2.332   3.872  10.191
38633SOL    HW217907   2.323   3.762  10.086
38634SOL     OW17908   1.308   5.905   7.011
38634SOL    HW117909   1.254   5.981   7.031
38634SOL    HW217910   1.290   5.843   7.082
38635SOL     OW17911   3.564   3.942   4.840
38635SOL    HW117912   3.498   3.960   4.773
38635SOL    HW217913   3.586   3.849   4.828
38636SOL     OW17914   4.293   1.452   7.541
38636SOL    HW117915   4.265   1.410   7.622
38636SOL    HW217916   4.321   1.379   7.485
38637SOL     OW17917   9.681   6.868   7.349
38637SOL    HW117918   9.664   6.962   7.345
38637SOL    HW217919   9.633   6.832   7.274
38638SOL     OW17920   7.718   0.094   7.191
38638SOL    HW117921   7.663   0.148   7.135
38638SOL    HW217922   7.722   0.141   7.274
38639SOL     OW17923  10.161   2.556  10.452
38639SOL    HW117924  10.224   2.623  10.477
38639SOL    HW217925  10.109   2.596  10.382
38640SOL     OW17926  10.301   1.844   8.786
38640SOL    HW117927  10.220   1.794   8.797
38640SOL    HW217928  10.353   1.792   8.724
38641SOL     OW17929   2.374   2.136   9.312
38641SOL    HW117930   2.354   2.062   9.254
38641SOL    HW217931   2.368   2.099   9.400
38642SOL     OW17932   3.879  10.330   8.469
38642SOL    HW117933   3.967  10.295   8.485
38642SOL    HW217934   3.821  10.256   8.486
38643SOL     OW17935   1.047   6.475   3.812
38643SOL    HW117936   0.984   6.494   3.881
38643SOL    HW217937   0.997   6.424   3.748
38644SOL     OW17938   6.934   3.269   0.491
38644SOL    HW117939   6.900   3.180   0.476
38644SOL    HW217940   7.009   3.276   0.431
38645SOL     OW17941   8.445   0.326   1.884
38645SOL    HW117942   8.420   0.268   1.812
38645SOL    HW217943   8.535   0.353   1.863
38646SOL     OW17944   4.006   1.316   5.598
38646SOL    HW117945   4.064   1.384   5.631
38646SOL    HW217946   4.065   1.248   5.565
38647SOL     OW17947   6.818   5.672   8.194
38647SOL    HW117948   6.832   5.738   8.262
38647SOL    HW217949   6.725   5.651   8.199
38648SOL     OW17950   0.380   8.910   3.065
38648SOL    HW117951   0.311   8.945   3.008
38648SOL    HW217952   0.370   8.815   3.058
38649SOL     OW17953   7.527   4.750   9.134
38649SOL    HW117954   7.542   4.656   9.142
38649SOL    HW217955   7.477   4.759   9.053
38650SOL     OW17956   2.946   4.594   4.448
38650SOL    HW117957   2.992   4.649   4.510
38650SOL    HW217958   2.974   4.505   4.470
38651SOL     OW17959   9.616   0.881   9.814
38651SOL    HW117960   9.696   0.908   9.769
38651SOL    HW217961   9.546   0.926   9.767
38652SOL     OW17962   8.885   0.863   8.428
38652SOL    HW117963   8.872   0.862   8.523
38652SOL    HW217964   8.914   0.774   8.407
38653SOL     OW17965   9.274   3.949   3.650
38653SOL    HW117966   9.300   4.020   3.591
38653SOL    HW217967   9.229   3.993   3.722
38654SOL     OW17968   9.228   9.674   9.392
38654SOL    HW117969   9.202   9.586   9.422
38654SOL    HW217970   9.240   9.664   9.297
38655SOL     OW17971   8.892   1.967   6.185
38655SOL    HW117972   8.982   1.938   6.168
38655SOL    HW217973   8.866   1.920   6.264
38656SOL     OW17974   6.205   6.909   9.525
38656SOL    HW117975   6.134   6.965   9.556
38656SOL    HW217976   6.219   6.936   9.434
38657SOL     OW17977   5.281   9.690   3.579
38657SOL    HW117978   5.234   9.650   3.652
38657SOL    HW217979   5.351   9.741   3.620
38658SOL     OW17980   5.401   7.789   2.386
38658SOL    HW117981   5.397   7.695   2.405
38658SOL    HW217982   5.402   7.831   2.472
38659SOL     OW17983   0.332   4.664   8.105
38659SOL    HW117984   0.357   4.573   8.089
38659SOL    HW217985   0.395   4.695   8.170
38660SOL     OW17986   0.567  10.728   1.208
38660SOL    HW117987   0.500  10.715   1.141
38660SOL    HW217988   0.560  10.651   1.263
38661SOL     OW17989   1.248   4.456  10.281
38661SOL    HW117990   1.229   4.536  10.328
38661SOL    HW217991   1.344   4.451  10.279
38662SOL     OW17992   1.510   4.986   8.945
38662SOL    HW117993   1.453   5.010   9.017
38662SOL    HW217994   1.464   4.915   8.900
38663SOL     OW17995   2.679   6.860   9.430
38663SOL    HW117996   2.706   6.810   9.507
38663SOL    HW217997   2.658   6.947   9.463
38664SOL     OW17998   7.770   6.633   0.573
38664SOL    HW117999   7.766   6.560   0.635
38664SOL    HW218000   7.679   6.661   0.563
38665SOL     OW18001   7.951   5.018   3.606
38665SOL    HW118002   7.872   4.987   3.561
38665SOL    HW218003   7.993   4.938   3.638
38666SOL     OW18004   0.364   7.514   1.449
38666SOL    HW118005   0.322   7.586   1.403
38666SOL    HW218006   0.296   7.481   1.508
38667SOL     OW18007   8.258   5.731   4.250
38667SOL    HW118008   8.336   5.741   4.304
38667SOL    HW218009   8.279   5.659   4.190
38668SOL     OW18010   0.938  10.852   7.969
38668SOL    HW118011   0.877  10.874   7.898
38668SOL    HW218012   0.919  10.761   7.989
38669SOL     OW18013   3.991   3.156   7.594
38669SOL    HW118014   4.056   3.119   7.533
38669SOL    HW218015   3.907   3.136   7.553
38670SOL     OW18016  10.806   4.459   2.788
38670SOL    HW118017  10.890   4.441   2.745
38670SOL    HW218018  10.772   4.536   2.742
38671SOL     OW18019   2.197   5.846   0.972
38671SOL    HW118020   2.102   5.852   0.964
38671SOL    HW218021   2.213   5.755   0.999
38672SOL     OW18022  11.071   8.594   7.973
38672SOL    HW118023  11.164   8.613   7.964
38672SOL    HW218024  11.038   8.659   8.034
38673SOL     OW18025  11.017   8.322   8.087
38673SOL    HW118026  11.101   8.281   8.108
38673SOL    HW218027  11.038   8.414   8.071
38674SOL     OW18028   5.360   6.339   6.561
38674SOL    HW118029   5.316   6.338   6.476
38674SOL    HW218030   5.437   6.283   6.548
38675SOL     OW18031   4.822   8.754   9.677
38675SOL    HW118032   4.769   8.805   9.738
38675SOL    HW218033   4.761   8.693   9.636
38676SOL     OW18034   3.979   0.101   7.641
38676SOL    HW118035   4.008   0.017   7.678
38676SOL    HW218036   4.056   0.158   7.648
38677SOL     OW18037   1.405   6.128   8.546
38677SOL    HW118038   1.362   6.156   8.465
38677SOL    HW218039   1.467   6.198   8.566
38678SOL     OW18040   0.469   8.048   7.306
38678SOL    HW118041   0.444   7.970   7.256
38678SOL    HW218042   0.386   8.089   7.330
38679SOL     OW18043   1.285   7.725  10.202
38679SOL    HW118044   1.337   7.780  10.260
38679SOL    HW218045   1.341   7.649  10.185
38680SOL     OW18046   0.924   7.299   2.862
38680SOL    HW118047   0.866   7.318   2.935
38680SOL    HW218048   1.003   7.350   2.879
38681SOL     OW18049   2.104   2.432   9.177
38681SOL    HW118050   2.058   2.462   9.098
38681SOL    HW218051   2.040   2.379   9.224
38682SOL     OW18052   9.194   3.382   9.499
38682SOL    HW118053   9.114   3.388   9.551
38682SOL    HW218054   9.262   3.423   9.552
38683SOL     OW18055   8.951   1.335   8.501
38683SOL    HW118056   8.999   1.307   8.579
38683SOL    HW218057   8.953   1.259   8.443
38684SOL     OW18058   6.401   0.638   3.063
38684SOL    HW118059   6.355   0.556   3.081
38684SOL    HW218060   6.390   0.651   2.969
38685SOL     OW18061   9.955   4.334   9.156
38685SOL    HW118062   9.984   4.392   9.085
38685SOL    HW218063   9.977   4.246   9.125
38686SOL     OW18064   4.678   0.713   1.369
38686SOL    HW118065   4.749   0.775   1.354
38686SOL    HW218066   4.674   0.703   1.464
38687SOL     OW18067   6.777   3.097  10.895
38687SOL    HW118068   6.760   3.047  10.814
38687SOL    HW218069   6.849   3.050  10.937
38688SOL     OW18070   9.957   5.851   5.371
38688SOL    HW118071  10.014   5.788   5.327
38688SOL    HW218072   9.885   5.865   5.309
38689SOL     OW18073  11.007   8.344   6.184
38689SOL    HW118074  10.937   8.405   6.205
38689SOL    HW218075  10.971   8.257   6.204
38690SOL     OW18076   2.435   7.112  10.969
38690SOL    HW118077   2.383   7.106  11.049
38690SOL    HW218078   2.431   7.204  10.945
38691SOL     OW18079  10.108   7.917   5.051
38691SOL    HW118080  10.146   8.003   5.070
38691SOL    HW218081  10.140   7.860   5.121
38692SOL     OW18082   3.916   4.642   0.049
38692SOL    HW118083   3.983   4.600   0.104
38692SOL    HW218084   3.918   4.734   0.075
38693SOL     OW18085   0.962   4.272   7.560
38693SOL    HW118086   0.897   4.271   7.489
38693SOL    HW218087   0.957   4.184   7.598
38694SOL     OW18088   7.959   4.753   0.053
38694SOL    HW118089   8.033   4.712   0.009
38694SOL    HW218090   7.992   4.772   0.141
38695SOL     OW18091   8.726   4.729   8.723
38695SOL    HW118092   8.662   4.688   8.781
38695SOL    HW218093   8.680   4.738   8.639
38696SOL     OW18094   0.613   3.379  10.155
38696SOL    HW118095   0.541   3.423  10.200
38696SOL    HW218096   0.570   3.317  10.096
38697SOL     OW18097   9.296   0.088   4.035
38697SOL    HW118098   9.306   0.005   3.987
38697SOL    HW218099   9.310   0.065   4.127
38698SOL     OW18100   2.015   5.415   0.323
38698SOL    HW118101   2.081   5.481   0.342
38698SOL    HW218102   1.938   5.442   0.373
38699SOL     OW18103   9.498   4.021   6.215
38699SOL    HW118104   9.551   4.046   6.290
38699SOL    HW218105   9.513   4.090   6.151
38700SOL     OW18106   1.513   2.905   4.480
38700SOL    HW118107   1.558   2.971   4.532
38700SOL    HW218108   1.521   2.824   4.531
38701SOL     OW18109   4.921   3.169   1.638
38701SOL    HW118110   4.929   3.144   1.545
38701SOL    HW218111   4.868   3.099   1.676
38702SOL     OW18112   6.452   5.566   0.795
38702SOL    HW118113   6.440   5.656   0.766
38702SOL    HW218114   6.371   5.544   0.840
38703SOL     OW18115   0.308   0.379   3.531
38703SOL    HW118116   0.269   0.463   3.555
38703SOL    HW218117   0.245   0.314   3.562
38704SOL     OW18118   6.756   1.545   7.425
38704SOL    HW118119   6.702   1.615   7.388
38704SOL    HW218120   6.791   1.581   7.506
38705SOL     OW18121   4.566   1.713   0.358
38705SOL    HW118122   4.655   1.747   0.346
38705SOL    HW218123   4.510   1.790   0.357
38706SOL     OW18124   3.154   9.016   9.332
38706SOL    HW118125   3.226   8.960   9.362
38706SOL    HW218126   3.196   9.081   9.276
38707SOL     OW18127   2.073   4.246   0.454
38707SOL    HW118128   1.987   4.209   0.474
38707SOL    HW218129   2.056   4.311   0.386
38708SOL     OW18130   7.191  10.749   7.429
38708SOL    HW118131   7.249  10.728   7.356
38708SOL    HW218132   7.104  10.722   7.399
38709SOL     OW18133   6.764   0.497   1.093
38709SOL    HW118134   6.778   0.405   1.069
38709SOL    HW218135   6.824   0.546   1.037
38710SOL     OW18136   2.255   8.956  10.404
38710SOL    HW118137   2.345   8.977  10.430
38710SOL    HW218138   2.233   8.877  10.454
38711SOL     OW18139   8.214   5.933   9.465
38711SOL    HW118140   8.147   5.923   9.397
38711SOL    HW218141   8.263   5.851   9.462
38712SOL     OW18142   6.732   3.689   1.750
38712SOL    HW118143   6.774   3.603   1.743
38712SOL    HW218144   6.682   3.697   1.669
38713SOL     OW18145   7.120   3.099   4.193
38713SOL    HW118146   7.128   3.190   4.164
38713SOL    HW218147   7.101   3.104   4.286
38714SOL     OW18148   2.157   0.239   5.722
38714SOL    HW118149   2.231   0.248   5.783
38714SOL    HW218150   2.198   0.235   5.635
38715SOL     OW18151   8.433   7.465   3.440
38715SOL    HW118152   8.379   7.533   3.399
38715SOL    HW218153   8.434   7.393   3.376
38716SOL     OW18154   9.357  10.610   9.897
38716SOL    HW118155   9.349  10.524   9.855
38716SOL    HW218156   9.422  10.656   9.844
38717SOL     OW18157   0.934   3.652   7.889
38717SOL    HW118158   1.024   3.664   7.860
38717SOL    HW218159   0.942   3.621   7.979
38718SOL     OW18160  10.905   7.404  10.200
38718SOL    HW118161  10.960   7.459  10.256
38718SOL    HW218162  10.950   7.319  10.198
38719SOL     OW18163  10.398   3.572   4.190
38719SOL    HW118164  10.310   3.597   4.162
38719SOL    HW218165  10.454   3.596   4.116
38720SOL     OW18166   1.524   2.876  10.751
38720SOL    HW118167   1.500   2.837  10.835
38720SOL    HW218168   1.483   2.819  10.685
38721SOL     OW18169   4.895   5.663   0.726
38721SOL    HW118170   4.913   5.608   0.649
38721SOL    HW218171   4.935   5.747   0.705
38722SOL     OW18172   0.072  10.957   9.703
38722SOL    HW118173  -0.013  10.996   9.681
38722SOL    HW218174   0.115  10.944   9.618
38723SOL     OW18175   1.172   6.044   1.217
38723SOL    HW118176   1.189   6.057   1.123
38723SOL    HW218177   1.239   5.982   1.244
38724SOL     OW18178   8.353   2.251   7.587
38724SOL    HW118179   8.399   2.214   7.511
38724SOL    HW218180   8.367   2.345   7.580
38725SOL     OW18181   5.700   3.605  10.197
38725SOL    HW118182   5.749   3.595  10.115
38725SOL    HW218183   5.614   3.567  10.178
38726SOL     OW18184   4.972   8.211   5.220
38726SOL    HW118185   5.053   8.246   5.182
38726SOL    HW218186   4.953   8.134   5.166
38727SOL     OW18187   8.928   2.990  10.279
38727SOL    HW118188   8.862   2.979  10.210
38727SOL    HW218189   8.970   2.904  10.286
38728SOL     OW18190   8.496   8.837   1.158
38728SOL    HW118191   8.577   8.861   1.203
38728SOL    HW218192   8.453   8.920   1.139
38729SOL     OW18193   2.064   2.803   4.894
38729SOL    HW118194   2.080   2.730   4.834
38729SOL    HW218195   2.015   2.866   4.842
38730SOL     OW18196   8.562   6.380   4.333
38730SOL    HW118197   8.478   6.423   4.317
38730SOL    HW218198   8.604   6.378   4.247
38731SOL     OW18199  10.669   2.450  10.977
38731SOL    HW118200  10.747   2.413  10.936
38731SOL    HW218201  10.605   2.379  10.975
38732SOL     OW18202   6.731   4.534   3.714
38732SOL    HW118203   6.681   4.490   3.644
38732SOL    HW218204   6.822   4.532   3.683
38733SOL     OW18205   3.068   5.404   0.695
38733SOL    HW118206   2.991   5.380   0.747
38733SOL    HW218207   3.073   5.499   0.702
38734SOL     OW18208   1.509   4.064  11.017
38734SOL    HW118209   1.479   4.135  11.073
38734SOL    HW218210   1.430   4.033  10.972
38735SOL     OW18211   4.979   3.311   8.326
38735SOL    HW118212   5.046   3.377   8.311
38735SOL    HW218213   4.926   3.345   8.397
38736SOL     OW18214  10.376   8.383   4.940
38736SOL    HW118215  10.358   8.472   4.911
38736SOL    HW218216  10.460   8.361   4.900
38737SOL     OW18217   2.678  10.768  10.479
38737SOL    HW118218   2.689  10.857  10.446
38737SOL    HW218219   2.587  10.746  10.459
38738SOL     OW18220   9.648   4.661   4.148
38738SOL    HW118221   9.740   4.664   4.175
38738SOL    HW218222   9.636   4.740   4.095
38739SOL     OW18223   3.457   3.262   8.022
38739SOL    HW118224   3.428   3.174   7.998
38739SOL    HW218225   3.534   3.247   8.077
38740SOL     OW18226   2.417   0.242  10.816
38740SOL    HW118227   2.335   0.193  10.807
38740SOL    HW218228   2.457   0.208  10.896
38741SOL     OW18229  10.741   9.266   0.357
38741SOL    HW118230  10.705   9.187   0.398
38741SOL    HW218231  10.752   9.241   0.265
38742SOL     OW18232   7.566   8.797   5.282
38742SOL    HW118233   7.554   8.839   5.367
38742SOL    HW218234   7.549   8.866   5.218
38743SOL     OW18235  10.325   8.839   9.596
38743SOL    HW118236  10.280   8.755   9.607
38743SOL    HW218237  10.307   8.886   9.677
38744SOL     OW18238   2.153   4.097   9.992
38744SOL    HW118239   2.243   4.098  10.026
38744SOL    HW218240   2.099   4.128  10.065
38745SOL     OW18241   8.538   2.794   0.803
38745SOL    HW118242   8.483   2.855   0.754
38745SOL    HW218243   8.577   2.738   0.736
38746SOL     OW18244   9.128   1.309   1.354
38746SOL    HW118245   9.066   1.381   1.340
38746SOL    HW218246   9.125   1.259   1.272
38747SOL     OW18247   1.716  10.977   6.965
38747SOL    HW118248   1.765  10.932   7.033
38747SOL    HW218249   1.630  10.993   7.003
38748SOL     OW18250   8.680   1.441   3.678
38748SOL    HW118251   8.724   1.404   3.601
38748SOL    HW218252   8.734   1.516   3.703
38749SOL     OW18253   8.162   4.917  10.422
38749SOL    HW118254   8.220   4.841  10.409
38749SOL    HW218255   8.197   4.984  10.363
38750SOL     OW18256   5.966   0.339   8.671
38750SOL    HW118257   5.919   0.367   8.749
38750SOL    HW218258   6.015   0.262   8.699
38751SOL     OW18259   9.721   0.373  10.724
38751SOL    HW118260   9.672   0.430  10.783
38751SOL    HW218261   9.658   0.347  10.657
38752SOL     OW18262   5.570   2.465   4.100
38752SOL    HW118263   5.581   2.480   4.006
38752SOL    HW218264   5.590   2.549   4.140
38753SOL     OW18265   4.929   5.444   1.923
38753SOL    HW118266   4.865   5.373   1.915
38753SOL    HW218267   4.984   5.418   1.997
38754SOL     OW18268   8.557   0.774   3.809
38754SOL    HW118269   8.518   0.812   3.887
38754SOL    HW218270   8.647   0.807   3.808
38755SOL     OW18271  10.568   0.490   9.358
38755SOL    HW118272  10.515   0.411   9.366
38755SOL    HW218273  10.552   0.538   9.439
38756SOL     OW18274   1.144   3.751   2.151
38756SOL    HW118275   1.132   3.846   2.147
38756SOL    HW218276   1.055   3.716   2.160
38757SOL     OW18277   3.238   5.078   5.518
38757SOL    HW118278   3.204   5.166   5.532
38757SOL    HW218279   3.329   5.091   5.490
38758SOL     OW18280  10.145   7.225   0.618
38758SOL    HW118281  10.208   7.169   0.663
38758SOL    HW218282  10.090   7.261   0.687
38759SOL     OW18283  10.007   5.927   4.477
38759SOL    HW118284  10.063   5.849   4.481
38759SOL    HW218285  10.016   5.968   4.563
38760SOL     OW18286   3.641   2.668   3.250
38760SOL    HW118287   3.664   2.756   3.222
38760SOL    HW218288   3.714   2.613   3.219
38761SOL     OW18289   9.164   2.634   2.803
38761SOL    HW118290   9.127   2.722   2.802
38761SOL    HW218291   9.097   2.579   2.763
38762SOL     OW18292   5.274   0.621   5.970
38762SOL    HW118293   5.363   0.644   5.995
38762SOL    HW218294   5.255   0.542   6.021
38763SOL     OW18295   5.815   6.110   4.839
38763SOL    HW118296   5.834   6.016   4.845
38763SOL    HW218297   5.803   6.138   4.929
38764SOL     OW18298   3.938   2.389   3.513
38764SOL    HW118299   3.951   2.295   3.496
38764SOL    HW218300   3.889   2.420   3.437
38765SOL     OW18301   3.320   5.443  10.446
38765SOL    HW118302   3.351   5.398  10.367
38765SOL    HW218303   3.379   5.517  10.456
38766SOL     OW18304  10.084   1.986  10.544
38766SOL    HW118305  10.135   2.037  10.606
38766SOL    HW218306   9.997   1.979  10.583
38767SOL     OW18307   6.831   9.043  10.625
38767SOL    HW118308   6.782   9.072  10.548
38767SOL    HW218309   6.837   9.121  10.680
38768SOL     OW18310   9.571   2.541   9.753
38768SOL    HW118311   9.619   2.620   9.731
38768SOL    HW218312   9.507   2.569   9.818
38769SOL     OW18313   7.371   8.132   8.631
38769SOL    HW118314   7.392   8.124   8.538
38769SOL    HW218315   7.280   8.102   8.637
38770SOL     OW18316   8.552   2.401   1.586
38770SOL    HW118317   8.478   2.353   1.549
38770SOL    HW218318   8.548   2.383   1.680
38771SOL     OW18319   4.403   3.172   2.174
38771SOL    HW118320   4.480   3.137   2.220
38771SOL    HW218321   4.418   3.148   2.082
38772SOL     OW18322   9.021   3.665   7.702
38772SOL    HW118323   9.020   3.711   7.618
38772SOL    HW218324   8.966   3.718   7.759
38773SOL     OW18325   6.882  10.706   2.415
38773SOL    HW118326   6.881  10.726   2.321
38773SOL    HW218327   6.898  10.612   2.419
38774SOL     OW18328   5.125   5.876  11.016
38774SOL    HW118329   5.168   5.895  11.099
38774SOL    HW218330   5.044   5.927  11.018
38775SOL     OW18331   2.567   1.575  10.414
38775SOL    HW118332   2.661   1.582  10.429
38775SOL    HW218333   2.528   1.592  10.499
38776SOL     OW18334   9.944   4.607   5.993
38776SOL    HW118335   9.853   4.636   6.000
38776SOL    HW218336   9.951   4.572   5.904
38777SOL     OW18337   6.294   7.762   9.241
38777SOL    HW118338   6.376   7.742   9.196
38777SOL    HW218339   6.290   7.698   9.312
38778SOL     OW18340   9.340   2.528   0.262
38778SOL    HW118341   9.272   2.575   0.309
38778SOL    HW218342   9.388   2.480   0.329
38779SOL     OW18343   2.386   2.462   2.392
38779SOL    HW118344   2.323   2.456   2.464
38779SOL    HW218345   2.343   2.417   2.319
38780SOL     OW18346   7.961   6.000   2.651
38780SOL    HW118347   7.967   5.916   2.605
38780SOL    HW218348   8.045   6.009   2.696
38781SOL     OW18349   8.126   2.834   2.433
38781SOL    HW118350   8.153   2.753   2.388
38781SOL    HW218351   8.135   2.902   2.366
38782SOL     OW18352   1.359   8.346   5.542
38782SOL    HW118353   1.353   8.382   5.630
38782SOL    HW218354   1.290   8.279   5.538
38783SOL     OW18355   4.994   2.008   1.695
38783SOL    HW118356   4.948   1.974   1.772
38783SOL    HW218357   4.929   2.004   1.624
38784SOL     OW18358   9.912   3.348   1.764
38784SOL    HW118359   9.922   3.383   1.675
38784SOL    HW218360   9.821   3.364   1.786
38785SOL     OW18361   2.946   4.864   2.100
38785SOL    HW118362   3.000   4.922   2.154
38785SOL    HW218363   2.856   4.882   2.127
38786SOL     OW18364  10.226   9.712   1.471
38786SOL    HW118365  10.226   9.755   1.385
38786SOL    HW218366  10.236   9.619   1.451
38787SOL     OW18367   2.318   0.842   3.319
38787SOL    HW118368   2.367   0.876   3.393
38787SOL    HW218369   2.267   0.769   3.355
38788SOL     OW18370   3.939   1.484   3.865
38788SOL    HW118371   3.948   1.579   3.858
38788SOL    HW218372   4.029   1.451   3.866
38789SOL     OW18373   3.364  10.424   0.568
38789SOL    HW118374   3.335  10.335   0.587
38789SOL    HW218375   3.447  10.432   0.615
38790SOL     OW18376   8.534   4.217   1.645
38790SOL    HW118377   8.473   4.253   1.581
38790SOL    HW218378   8.485   4.214   1.727
38791SOL     OW18379   0.318   2.893   7.713
38791SOL    HW118380   0.375   2.862   7.783
38791SOL    HW218381   0.253   2.947   7.757
38792SOL     OW18382   0.656   1.757   1.420
38792SOL    HW118383   0.625   1.843   1.447
38792SOL    HW218384   0.747   1.753   1.449
38793SOL     OW18385  10.933   2.842  10.076
38793SOL    HW118386  10.982   2.834   9.994
38793SOL    HW218387  10.951   2.931  10.106
38794SOL     OW18388   9.753   9.634   7.422
38794SOL    HW118389   9.757   9.693   7.347
38794SOL    HW218390   9.726   9.689   7.495
38795SOL     OW18391   2.157   0.853   0.925
38795SOL    HW118392   2.119   0.926   0.876
38795SOL    HW218393   2.205   0.803   0.859
38796SOL     OW18394   8.456  10.721   9.587
38796SOL    HW118395   8.436  10.648   9.528
38796SOL    HW218396   8.381  10.724   9.647
38797SOL     OW18397   0.117   8.124   6.671
38797SOL    HW118398   0.190   8.130   6.609
38797SOL    HW218399   0.057   8.193   6.644
38798SOL     OW18400   5.150  10.634   2.084
38798SOL    HW118401   5.188  10.665   2.166
38798SOL    HW218402   5.072  10.585   2.110
38799SOL     OW18403   6.860   1.359   7.771
38799SOL    HW118404   6.780   1.402   7.743
38799SOL    HW218405   6.834   1.268   7.787
38800SOL     OW18406   9.935   4.839   1.060
38800SOL    HW118407   9.891   4.801   0.984
38800SOL    HW218408   9.929   4.771   1.127
38801SOL     OW18409   1.723   3.763  10.167
38801SOL    HW118410   1.711   3.715  10.249
38801SOL    HW218411   1.815   3.790  10.168
38802SOL     OW18412   5.366   7.232   7.755
38802SOL    HW118413   5.366   7.327   7.746
38802SOL    HW218414   5.326   7.200   7.674
38803SOL     OW18415   5.726   2.321   8.574
38803SOL    HW118416   5.720   2.240   8.523
38803SOL    HW218417   5.800   2.368   8.536
38804SOL     OW18418   6.364   9.527   8.621
38804SOL    HW118419   6.311   9.447   8.620
38804SOL    HW218420   6.438   9.508   8.563
38805SOL     OW18421   8.786   0.043   5.156
38805SOL    HW118422   8.767   0.045   5.062
38805SOL    HW218423   8.774   0.133   5.185
38806SOL     OW18424   3.483   5.748   2.300
38806SOL    HW118425   3.446   5.693   2.231
38806SOL    HW218426   3.577   5.733   2.295
38807SOL     OW18427   5.324   3.513   5.816
38807SOL    HW118428   5.232   3.500   5.838
38807SOL    HW218429   5.359   3.565   5.888
38808SOL     OW18430   6.096   0.323   9.955
38808SOL    HW118431   6.145   0.366   9.884
38808SOL    HW218432   6.105   0.229   9.936
38809SOL     OW18433   1.489   1.294   2.210
38809SOL    HW118434   1.546   1.261   2.279
38809SOL    HW218435   1.542   1.359   2.164
38810SOL     OW18436   2.434   4.504   9.907
38810SOL    HW118437   2.523   4.477   9.882
38810SOL    HW218438   2.447   4.579   9.964
38811SOL     OW18439  10.131   2.101   9.837
38811SOL    HW118440  10.149   2.136   9.749
38811SOL    HW218441  10.218   2.091   9.877
38812SOL     OW18442   5.907   8.114   4.059
38812SOL    HW118443   5.859   8.185   4.100
38812SOL    HW218444   5.981   8.156   4.016
38813SOL     OW18445   1.131   6.742   8.865
38813SOL    HW118446   1.206   6.685   8.849
38813SOL    HW218447   1.160   6.801   8.934
38814SOL     OW18448   9.772   3.087   8.510
38814SOL    HW118449   9.717   3.107   8.585
38814SOL    HW218450   9.741   3.002   8.479
38815SOL     OW18451  10.733   7.011   5.151
38815SOL    HW118452  10.818   6.969   5.138
38815SOL    HW218453  10.746   7.069   5.225
38816SOL     OW18454   1.076   4.356   0.883
38816SOL    HW118455   1.117   4.373   0.798
38816SOL    HW218456   1.104   4.267   0.906
38817SOL     OW18457  10.055   5.047   9.675
38817SOL    HW118458  10.127   4.985   9.689
38817SOL    HW218459   9.990   4.997   9.625
38818SOL     OW18460   6.805   4.977   2.009
38818SOL    HW118461   6.763   4.893   2.030
38818SOL    HW218462   6.885   4.977   2.061
38819SOL     OW18463   4.328   4.532   7.697
38819SOL    HW118464   4.417   4.568   7.699
38819SOL    HW218465   4.287   4.574   7.621
38820SOL     OW18466   7.668   2.864   2.178
38820SOL    HW118467   7.635   2.915   2.252
38820SOL    HW218468   7.750   2.826   2.210
38821SOL     OW18469   1.801   5.118   5.307
38821SOL    HW118470   1.792   5.198   5.255
38821SOL    HW218471   1.851   5.058   5.251
38822SOL     OW18472   8.547   1.156   2.485
38822SOL    HW118473   8.512   1.230   2.436
38822SOL    HW218474   8.604   1.195   2.551
38823SOL     OW18475   1.754   2.135   9.331
38823SOL    HW118476   1.746   2.116   9.424
38823SOL    HW218477   1.845   2.112   9.310
38824SOL     OW18478  10.104   4.458   2.139
38824SOL    HW118479  10.143   4.406   2.069
38824SOL    HW218480  10.150   4.430   2.218
38825SOL     OW18481   9.168   9.546  10.106
38825SOL    HW118482   9.179   9.523  10.013
38825SOL    HW218483   9.128   9.468  10.145
38826SOL     OW18484   7.130   5.788   0.992
38826SOL    HW118485   7.092   5.870   0.960
38826SOL    HW218486   7.069   5.720   0.962
38827SOL     OW18487   0.210   8.544   9.530
38827SOL    HW118488   0.228   8.636   9.511
38827SOL    HW218489   0.146   8.546   9.601
38828SOL     OW18490   9.450   6.623   0.279
38828SOL    HW118491   9.505   6.572   0.338
38828SOL    HW218492   9.512   6.674   0.226
38829SOL     OW18493  10.682   7.907   8.560
38829SOL    HW118494  10.707   7.985   8.511
38829SOL    HW218495  10.618   7.938   8.624
38830SOL     OW18496   5.282   1.009   8.340
38830SOL    HW118497   5.213   0.984   8.401
38830SOL    HW218498   5.240   1.009   8.254
38831SOL     OW18499   0.661   9.468   2.540
38831SOL    HW118500   0.577   9.439   2.504
38831SOL    HW218501   0.716   9.389   2.540
38832SOL     OW18502  10.147   3.769   4.932
38832SOL    HW118503  10.073   3.709   4.924
38832SOL    HW218504  10.115   3.838   4.989
38833SOL     OW18505   0.832   7.499  11.045
38833SOL    HW118506   0.865   7.541  10.966
38833SOL    HW218507   0.851   7.406  11.031
38834SOL     OW18508   3.413  10.709   2.769
38834SOL    HW118509   3.459  10.791   2.785
38834SOL    HW218510   3.461  10.644   2.820
38835SOL     OW18511  10.046   9.615  10.541
38835SOL    HW118512  10.074   9.693  10.494
38835SOL    HW218513   9.975   9.579  10.488
38836SOL     OW18514   0.493   8.739   1.219
38836SOL    HW118515   0.534   8.652   1.219
38836SOL    HW218516   0.438   8.739   1.297
38837SOL     OW18517   9.637   3.465   8.930
38837SOL    HW118518   9.556   3.426   8.897
38837SOL    HW218519   9.612   3.511   9.009
38838SOL     OW18520   5.463   4.955   2.193
38838SOL    HW118521   5.417   5.013   2.253
38838SOL    HW218522   5.452   4.995   2.107
38839SOL     OW18523   4.624   9.975   1.801
38839SOL    HW118524   4.611   9.930   1.884
38839SOL    HW218525   4.536  10.003   1.775
38840SOL     OW18526   1.912  10.367  10.357
38840SOL    HW118527   1.841  10.309  10.329
38840SOL    HW218528   1.984  10.347  10.297
38841SOL     OW18529   4.464  10.268   2.882
38841SOL    HW118530   4.424  10.224   2.957
38841SOL    HW218531   4.454  10.361   2.901
38842SOL     OW18532  10.153  11.082   1.157
38842SOL    HW118533  10.216  11.026   1.202
38842SOL    HW218534  10.068  11.040   1.172
38843SOL     OW18535   9.694   3.996   7.787
38843SOL    HW118536   9.716   4.066   7.726
38843SOL    HW218537   9.629   3.943   7.740
38844SOL     OW18538   4.547   1.071   1.633
38844SOL    HW118539   4.477   1.029   1.583
38844SOL    HW218540   4.627   1.027   1.602
38845SOL     OW18541   8.648   9.491   0.223
38845SOL    HW118542   8.617   9.568   0.269
38845SOL    HW218543   8.589   9.482   0.148
38846SOL     OW18544   5.685   3.270   4.476
38846SOL    HW118545   5.675   3.222   4.558
38846SOL    HW218546   5.605   3.322   4.469
38847SOL     OW18547   9.760   6.130   1.946
38847SOL    HW118548   9.677   6.144   1.900
38847SOL    HW218549   9.734   6.099   2.033
38848SOL     OW18550   8.509   6.465   3.697
38848SOL    HW118551   8.446   6.521   3.743
38848SOL    HW218552   8.522   6.390   3.755
38849SOL     OW18553   7.780   1.955   4.707
38849SOL    HW118554   7.812   2.019   4.770
38849SOL    HW218555   7.768   2.004   4.626
38850SOL     OW18556   5.508   8.393   4.391
38850SOL    HW118557   5.581   8.451   4.370
38850SOL    HW218558   5.526   8.362   4.479
38851SOL     OW18559   6.237  10.571   0.640
38851SOL    HW118560   6.173  10.568   0.569
38851SOL    HW218561   6.261  10.664   0.646
38852SOL     OW18562   3.555   5.092  11.083
38852SOL    HW118563   3.537   5.002  11.110
38852SOL    HW218564   3.635   5.115  11.130
38853SOL     OW18565   4.686   2.628   4.658
38853SOL    HW118566   4.678   2.532   4.654
38853SOL    HW218567   4.633   2.653   4.733
38854SOL     OW18568   7.204   6.273   0.762
38854SOL    HW118569   7.254   6.222   0.826
38854SOL    HW218570   7.242   6.361   0.766
38855SOL     OW18571   8.701   5.104   0.195
38855SOL    HW118572   8.635   5.035   0.194
38855SOL    HW218573   8.732   5.106   0.286
38856SOL     OW18574   8.483  10.852   2.961
38856SOL    HW118575   8.428  10.923   2.994
38856SOL    HW218576   8.434  10.817   2.886
38857SOL     OW18577   0.414   3.149   6.252
38857SOL    HW118578   0.455   3.161   6.166
38857SOL    HW218579   0.487   3.156   6.314
38858SOL     OW18580   7.704   3.602   8.589
38858SOL    HW118581   7.672   3.651   8.514
38858SOL    HW218582   7.683   3.656   8.664
38859SOL     OW18583  10.679   1.141   4.422
38859SOL    HW118584  10.627   1.077   4.374
38859SOL    HW218585  10.640   1.225   4.400
38860SOL     OW18586   4.949   3.398  10.498
38860SOL    HW118587   4.959   3.484  10.457
38860SOL    HW218588   5.039   3.364  10.506
38861SOL     OW18589   1.238   6.398   3.981
38861SOL    HW118590   1.178   6.375   4.051
38861SOL    HW218591   1.182   6.417   3.906
38862SOL     OW18592   6.463   6.049   4.355
38862SOL    HW118593   6.506   5.964   4.346
38862SOL    HW218594   6.444   6.057   4.448
38863SOL     OW18595   8.560   2.328   9.136
38863SOL    HW118596   8.568   2.423   9.137
38863SOL    HW218597   8.624   2.299   9.071
38864SOL     OW18598   9.505   7.766   0.335
38864SOL    HW118599   9.485   7.832   0.269
38864SOL    HW218600   9.421   7.745   0.374
38865SOL     OW18601  10.764  10.799   2.577
38865SOL    HW118602  10.834  10.811   2.641
38865SOL    HW218603  10.727  10.713   2.598
38866SOL     OW18604   7.201   8.427   9.106
38866SOL    HW118605   7.147   8.351   9.128
38866SOL    HW218606   7.278   8.390   9.061
38867SOL     OW18607   0.552   3.234   7.091
38867SOL    HW118608   0.561   3.141   7.111
38867SOL    HW218609   0.485   3.265   7.151
38868SOL     OW18610   1.191   6.140   9.617
38868SOL    HW118611   1.183   6.181   9.703
38868SOL    HW218612   1.273   6.090   9.622
38869SOL     OW18613   5.174   2.045   6.887
38869SOL    HW118614   5.132   2.059   6.972
38869SOL    HW218615   5.102   2.028   6.826
38870SOL     OW18616   5.864   4.226   5.045
38870SOL    HW118617   5.811   4.170   5.102
38870SOL    HW218618   5.947   4.179   5.036
38871SOL     OW18619   9.804   7.173   9.897
38871SOL    HW118620   9.722   7.222   9.889
38871SOL    HW218621   9.784   7.102   9.958
38872SOL     OW18622   3.615   5.116   4.870
38872SOL    HW118623   3.574   5.200   4.888
38872SOL    HW218624   3.584   5.057   4.939
38873SOL     OW18625   5.900   8.169   2.282
38873SOL    HW118626   5.818   8.140   2.322
38873SOL    HW218627   5.902   8.123   2.197
38874SOL     OW18628   9.823   0.526   3.717
38874SOL    HW118629   9.797   0.610   3.680
38874SOL    HW218630   9.740   0.483   3.739
38875SOL     OW18631   9.890   1.794   6.675
38875SOL    HW118632   9.931   1.866   6.723
38875SOL    HW218633   9.944   1.717   6.695
38876SOL     OW18634   0.226   8.347   8.752
38876SOL    HW118635   0.161   8.336   8.683
38876SOL    HW218636   0.204   8.430   8.793
38877SOL     OW18637   4.933   8.762   6.341
38877SOL    HW118638   4.901   8.755   6.431
38877SOL    HW218639   4.855   8.749   6.287
38878SOL     OW18640   6.749   3.516   6.486
38878SOL    HW118641   6.730   3.596   6.437
38878SOL    HW218642   6.693   3.449   6.445
38879SOL     OW18643   9.774   6.668   2.726
38879SOL    HW118644   9.734   6.662   2.813
38879SOL    HW218645   9.850   6.609   2.730
38880SOL     OW18646  10.538   6.546   2.663
38880SOL    HW118647  10.449   6.553   2.696
38880SOL    HW218648  10.533   6.480   2.594
38881SOL     OW18649   5.749   8.401   2.701
38881SOL    HW118650   5.774   8.332   2.762
38881SOL    HW218651   5.709   8.468   2.755
38882SOL     OW18652   8.211   4.704   8.688
38882SOL    HW118653   8.156   4.636   8.649
38882SOL    HW218654   8.199   4.780   8.631
38883SOL     OW18655   0.005   3.764   2.900
38883SOL    HW118656   0.092   3.801   2.913
38883SOL    HW218657  -0.033   3.815   2.828
38884SOL     OW18658   9.425   3.117   0.282
38884SOL    HW118659   9.460   3.038   0.324
38884SOL    HW218660   9.330   3.109   0.292
38885SOL     OW18661   3.049   8.921   8.112
38885SOL    HW118662   3.075   8.906   8.021
38885SOL    HW218663   2.954   8.926   8.109
38886SOL     OW18664   4.500   8.984   6.132
38886SOL    HW118665   4.551   8.993   6.212
38886SOL    HW218666   4.564   8.956   6.066
38887SOL     OW18667   8.704   2.542   0.433
38887SOL    HW118668   8.635   2.544   0.499
38887SOL    HW218669   8.693   2.457   0.389
38888SOL     OW18670   4.584   3.379   8.252
38888SOL    HW118671   4.665   3.389   8.202
38888SOL    HW218672   4.590   3.291   8.289
38889SOL     OW18673   2.212   0.574   4.537
38889SOL    HW118674   2.137   0.632   4.536
38889SOL    HW218675   2.275   0.617   4.594
38890SOL     OW18676   8.128   0.075   3.590
38890SOL    HW118677   8.186   0.052   3.662
38890SOL    HW218678   8.053   0.118   3.632
38891SOL     OW18679   3.451  10.556   0.954
38891SOL    HW118680   3.448  10.650   0.970
38891SOL    HW218681   3.500  10.547   0.872
38892SOL     OW18682   4.203   3.511   9.583
38892SOL    HW118683   4.277   3.571   9.579
38892SOL    HW218684   4.219   3.449   9.512
38893SOL     OW18685   8.782   2.661   2.207
38893SOL    HW118686   8.689   2.641   2.211
38893SOL    HW218687   8.797   2.720   2.281
38894SOL     OW18688   1.778   1.819   0.649
38894SOL    HW118689   1.863   1.776   0.659
38894SOL    HW218690   1.740   1.819   0.737
38895SOL     OW18691  10.161   1.405   7.198
38895SOL    HW118692  10.114   1.477   7.238
38895SOL    HW218693  10.096   1.362   7.142
38896SOL     OW18694   6.245   3.139   2.216
38896SOL    HW118695   6.316   3.194   2.183
38896SOL    HW218696   6.167   3.194   2.210
38897SOL     OW18697   3.940   0.805   1.003
38897SOL    HW118698   3.990   0.796   0.922
38897SOL    HW218699   3.933   0.899   1.017
38898SOL     OW18700   2.281   1.891   9.192
38898SOL    HW118701   2.190   1.864   9.207
38898SOL    HW218702   2.321   1.815   9.148
38899SOL     OW18703   6.434   7.238   4.233
38899SOL    HW118704   6.478   7.229   4.148
38899SOL    HW218705   6.487   7.301   4.281
38900SOL     OW18706  10.506   7.542   5.471
38900SOL    HW118707  10.570   7.486   5.515
38900SOL    HW218708  10.488   7.497   5.388
38901SOL     OW18709   0.198   9.558   7.834
38901SOL    HW118710   0.106   9.568   7.808
38901SOL    HW218711   0.240   9.516   7.758
38902SOL     OW18712   2.419   3.403   3.919
38902SOL    HW118713   2.447   3.319   3.882
38902SOL    HW218714   2.345   3.429   3.865
38903SOL     OW18715   1.326   2.394   0.955
38903SOL    HW118716   1.277   2.340   0.892
38903SOL    HW218717   1.382   2.331   1.001
38904SOL     OW18718   0.403   1.192   1.361
38904SOL    HW118719   0.490   1.221   1.390
38904SOL    HW218720   0.418   1.153   1.275
38905SOL     OW18721   1.333   4.238   9.736
38905SOL    HW118722   1.411   4.287   9.760
38905SOL    HW218723   1.354   4.200   9.650
38906SOL     OW18724   1.869   8.770   0.118
38906SOL    HW118725   1.930   8.844   0.117
38906SOL    HW218726   1.784   8.809   0.135
38907SOL     OW18727   2.943  10.028  10.612
38907SOL    HW118728   3.030   9.992  10.629
38907SOL    HW218729   2.899  10.025  10.696
38908SOL     OW18730   3.326   5.945   1.380
38908SOL    HW118731   3.303   5.914   1.292
38908SOL    HW218732   3.305   6.038   1.379
38909SOL     OW18733   2.831   5.690   0.272
38909SOL    HW118734   2.763   5.705   0.337
38909SOL    HW218735   2.824   5.597   0.251
38910SOL     OW18736   2.488   1.200   6.460
38910SOL    HW118737   2.420   1.218   6.395
38910SOL    HW218738   2.550   1.143   6.414
38911SOL     OW18739   2.226   0.283   4.463
38911SOL    HW118740   2.272   0.365   4.482
38911SOL    HW218741   2.236   0.271   4.368
38912SOL     OW18742  10.785   0.727   8.058
38912SOL    HW118743  10.711   0.786   8.070
38912SOL    HW218744  10.824   0.754   7.974
38913SOL     OW18745   1.097   4.169   9.913
38913SOL    HW118746   1.138   4.159   9.999
38913SOL    HW218747   1.158   4.223   9.863
38914SOL     OW18748   6.177   4.965   1.494
38914SOL    HW118749   6.091   4.991   1.525
38914SOL    HW218750   6.196   5.025   1.422
38915SOL     OW18751   9.970   7.722   3.405
38915SOL    HW118752  10.035   7.708   3.473
38915SOL    HW218753   9.886   7.721   3.451
38916SOL     OW18754   7.131   3.181   9.160
38916SOL    HW118755   7.216   3.178   9.116
38916SOL    HW218756   7.079   3.241   9.107
38917SOL     OW18757   8.122   4.636  10.982
38917SOL    HW118758   8.076   4.632  10.898
38917SOL    HW218759   8.163   4.550  10.991
38918SOL     OW18760   7.983   6.957   2.097
38918SOL    HW118761   8.004   7.028   2.157
38918SOL    HW218762   8.062   6.948   2.043
38919SOL     OW18763   1.028  10.817   6.915
38919SOL    HW118764   0.992  10.734   6.944
38919SOL    HW218765   0.965  10.883   6.944
38920SOL     OW18766   8.516   0.587   3.452
38920SOL    HW118767   8.512   0.566   3.545
38920SOL    HW218768   8.428   0.567   3.419
38921SOL     OW18769   9.977   0.383  10.615
38921SOL    HW118770   9.884   0.392  10.633
38921SOL    HW218771   9.981   0.348  10.526
38922SOL     OW18772   7.285   1.934   2.857
38922SOL    HW118773   7.341   1.957   2.782
38922SOL    HW218774   7.341   1.879   2.912
38923SOL     OW18775   2.215   9.719   4.044
38923SOL    HW118776   2.213   9.801   3.994
38923SOL    HW218777   2.247   9.654   3.981
38924SOL     OW18778   2.101   9.226   4.724
38924SOL    HW118779   2.073   9.156   4.665
38924SOL    HW218780   2.107   9.303   4.668
38925SOL     OW18781  10.743   4.343   9.330
38925SOL    HW118782  10.734   4.371   9.421
38925SOL    HW218783  10.778   4.420   9.285
38926SOL     OW18784   0.192   5.522   5.585
38926SOL    HW118785   0.259   5.579   5.622
38926SOL    HW218786   0.170   5.561   5.500
38927SOL     OW18787   2.897   4.282   2.192
38927SOL    HW118788   2.967   4.347   2.197
38927SOL    HW218789   2.825   4.327   2.148
38928SOL     OW18790   9.946   1.878   1.112
38928SOL    HW118791  10.010   1.846   1.048
38928SOL    HW218792   9.881   1.924   1.059
38929SOL     OW18793   7.247   9.903   2.515
38929SOL    HW118794   7.268   9.970   2.579
38929SOL    HW218795   7.155   9.882   2.531
38930SOL     OW18796  10.166   9.912   5.280
38930SOL    HW118797  10.172   9.921   5.375
38930SOL    HW218798  10.073   9.920   5.261
38931SOL     OW18799   9.336   1.838   1.967
38931SOL    HW118800   9.283   1.896   1.912
38931SOL    HW218801   9.305   1.750   1.946
38932SOL     OW18802  10.875   4.120   1.754
38932SOL    HW118803  10.943   4.168   1.802
38932SOL    HW218804  10.793   4.150   1.792
38933SOL     OW18805   6.279   8.290   3.324
38933SOL    HW118806   6.349   8.262   3.383
38933SOL    HW218807   6.306   8.377   3.294
38934SOL     OW18808   3.234   8.392   5.077
38934SOL    HW118809   3.139   8.396   5.090
38934SOL    HW218810   3.261   8.483   5.065
38935SOL     OW18811   5.068   3.547   0.762
38935SOL    HW118812   5.029   3.476   0.711
38935SOL    HW218813   5.003   3.566   0.829
38936SOL     OW18814   2.029   1.792  10.667
38936SOL    HW118815   2.077   1.719  10.706
38936SOL    HW218816   2.028   1.859  10.735
38937SOL     OW18817   9.236   0.369   5.385
38937SOL    HW118818   9.198   0.348   5.299
38937SOL    HW218819   9.324   0.402   5.365
38938SOL     OW18820   9.258   6.388   4.735
38938SOL    HW118821   9.181   6.335   4.716
38938SOL    HW218822   9.282   6.426   4.650
38939SOL     OW18823   9.360   7.166   9.084
38939SOL    HW118824   9.265   7.179   9.084
38939SOL    HW218825   9.394   7.236   9.029
38940SOL     OW18826   7.674   2.290   9.554
38940SOL    HW118827   7.623   2.231   9.498
38940SOL    HW218828   7.645   2.269   9.642
38941SOL     OW18829   2.851   0.904   3.973
38941SOL    HW118830   2.879   0.922   4.062
38941SOL    HW218831   2.914   0.950   3.918
38942SOL     OW18832   6.239   1.304   3.038
38942SOL    HW118833   6.300   1.302   3.111
38942SOL    HW218834   6.280   1.248   2.971
38943SOL     OW18835   8.655   8.284   2.861
38943SOL    HW118836   8.664   8.271   2.955
38943SOL    HW218837   8.596   8.214   2.833
38944SOL     OW18838   2.462  10.381   4.442
38944SOL    HW118839   2.463  10.286   4.428
38944SOL    HW218840   2.482  10.392   4.535
38945SOL     OW18841   7.785   1.610   8.659
38945SOL    HW118842   7.730   1.619   8.736
38945SOL    HW218843   7.724   1.612   8.585
38946SOL     OW18844   0.356   5.285   7.901
38946SOL    HW118845   0.326   5.374   7.920
38946SOL    HW218846   0.451   5.293   7.894
38947SOL     OW18847   9.725   1.818   5.176
38947SOL    HW118848   9.701   1.800   5.267
38947SOL    HW218849   9.691   1.743   5.126
38948SOL     OW18850  11.045   6.391   8.195
38948SOL    HW118851  11.015   6.463   8.140
38948SOL    HW218852  10.983   6.388   8.267
38949SOL     OW18853   5.262   0.561   4.104
38949SOL    HW118854   5.227   0.472   4.091
38949SOL    HW218855   5.319   0.575   4.028
38950SOL     OW18856   8.028   5.681   2.598
38950SOL    HW118857   7.996   5.598   2.561
38950SOL    HW218858   8.001   5.678   2.690
38951SOL     OW18859   7.939   3.792   7.192
38951SOL    HW118860   8.027   3.830   7.186
38951SOL    HW218861   7.880   3.867   7.196
38952SOL     OW18862   8.711   2.935   0.495
38952SOL    HW118863   8.748   2.855   0.457
38952SOL    HW218864   8.616   2.921   0.492
38953SOL     OW18865   3.039   6.842   6.877
38953SOL    HW118866   3.091   6.822   6.954
38953SOL    HW218867   3.006   6.930   6.892
38954SOL     OW18868   2.381   9.059   9.575
38954SOL    HW118869   2.325   8.981   9.576
38954SOL    HW218870   2.415   9.063   9.485
38955SOL     OW18871   6.613   1.581   5.369
38955SOL    HW118872   6.705   1.562   5.351
38955SOL    HW218873   6.613   1.622   5.455
38956SOL     OW18874   5.442   4.009   5.254
38956SOL    HW118875   5.479   3.960   5.328
38956SOL    HW218876   5.385   3.946   5.210
38957SOL     OW18877   1.013   4.065   3.065
38957SOL    HW118878   0.931   4.015   3.062
38957SOL    HW218879   1.033   4.084   2.973
38958SOL     OW18880  10.229  11.065   7.071
38958SOL    HW118881  10.187  10.995   7.020
38958SOL    HW218882  10.224  11.035   7.161
38959SOL     OW18883   4.418   0.416   5.156
38959SOL    HW118884   4.362   0.370   5.093
38959SOL    HW218885   4.394   0.379   5.241
38960SOL     OW18886   8.589   5.830   0.504
38960SOL    HW118887   8.615   5.739   0.488
38960SOL    HW218888   8.599   5.872   0.419
38961SOL     OW18889   9.972  10.699   9.133
38961SOL    HW118890   9.930  10.694   9.218
38961SOL    HW218891   9.900  10.690   9.070
38962SOL     OW18892   5.969   1.875   2.144
38962SOL    HW118893   6.016   1.958   2.148
38962SOL    HW218894   6.030   1.811   2.181
38963SOL     OW18895   2.499   5.422   0.650
38963SOL    HW118896   2.412   5.391   0.626
38963SOL    HW218897   2.485   5.510   0.683
38964SOL     OW18898   0.967  10.222   3.675
38964SOL    HW118899   0.993  10.241   3.585
38964SOL    HW218900   1.050  10.212   3.722
38965SOL     OW18901   8.264   2.882   8.418
38965SOL    HW118902   8.310   2.893   8.501
38965SOL    HW218903   8.311   2.939   8.357
38966SOL     OW18904   8.171   7.157   2.634
38966SOL    HW118905   8.132   7.195   2.712
38966SOL    HW218906   8.246   7.213   2.614
38967SOL     OW18907   3.299   0.832   6.856
38967SOL    HW118908   3.264   0.881   6.930
38967SOL    HW218909   3.322   0.899   6.791
38968SOL     OW18910  10.344   3.201   6.028
38968SOL    HW118911  10.339   3.131   6.094
38968SOL    HW218912  10.415   3.258   6.058
38969SOL     OW18913   1.235   2.069   1.841
38969SOL    HW118914   1.228   2.119   1.922
38969SOL    HW218915   1.235   1.977   1.869
38970SOL     OW18916   0.644   6.859   9.987
38970SOL    HW118917   0.697   6.936  10.005
38970SOL    HW218918   0.651   6.846   9.892
38971SOL     OW18919   2.739   0.763   3.710
38971SOL    HW118920   2.736   0.829   3.779
38971SOL    HW218921   2.792   0.692   3.747
38972SOL     OW18922   3.442   5.938   0.548
38972SOL    HW118923   3.482   5.947   0.461
38972SOL    HW218924   3.509   5.971   0.608
38973SOL     OW18925   2.420   1.910   4.851
38973SOL    HW118926   2.342   1.887   4.901
38973SOL    HW218927   2.488   1.851   4.884
38974SOL     OW18928   4.850   3.430   4.449
38974SOL    HW118929   4.915   3.469   4.507
38974SOL    HW218930   4.864   3.335   4.458
38975SOL     OW18931   1.089   3.820   5.316
38975SOL    HW118932   1.134   3.735   5.316
38975SOL    HW218933   1.149   3.879   5.362
38976SOL     OW18934   0.143   0.420   0.531
38976SOL    HW118935   0.106   0.422   0.619
38976SOL    HW218936   0.172   0.509   0.514
38977SOL     OW18937   8.205   8.765   6.761
38977SOL    HW118938   8.110   8.759   6.748
38977SOL    HW218939   8.234   8.674   6.767
38978SOL     OW18940   9.396   5.984   2.074
38978SOL    HW118941   9.424   6.019   2.158
38978SOL    HW218942   9.326   5.922   2.095
38979SOL     OW18943   4.486   2.293   7.818
38979SOL    HW118944   4.551   2.298   7.747
38979SOL    HW218945   4.481   2.199   7.838
38980SOL     OW18946   9.402   3.269   8.570
38980SOL    HW118947   9.346   3.280   8.493
38980SOL    HW218948   9.483   3.314   8.547
38981SOL     OW18949   9.085   6.053   1.834
38981SOL    HW118950   9.044   5.997   1.767
38981SOL    HW218951   9.083   6.000   1.914
38982SOL     OW18952   4.775   3.473   7.233
38982SOL    HW118953   4.825   3.520   7.300
38982SOL    HW218954   4.785   3.526   7.154
38983SOL     OW18955   9.398   6.411   3.511
38983SOL    HW118956   9.351   6.355   3.448
38983SOL    HW218957   9.480   6.364   3.527
38984SOL     OW18958  10.710  11.061   0.817
38984SOL    HW118959  10.642  11.070   0.750
38984SOL    HW218960  10.770  10.995   0.782
38985SOL     OW18961   8.477   4.517   9.994
38985SOL    HW118962   8.571   4.499   9.999
38985SOL    HW218963   8.449   4.471   9.914
38986SOL     OW18964   9.893   1.662   4.169
38986SOL    HW118965   9.926   1.572   4.167
38986SOL    HW218966   9.850   1.674   4.084
38987SOL     OW18967  10.806  10.635   7.502
38987SOL    HW118968  10.857  10.716   7.510
38987SOL    HW218969  10.715  10.664   7.496
38988SOL     OW18970  11.005   5.808   5.426
38988SOL    HW118971  11.095   5.779   5.409
38988SOL    HW218972  10.951   5.738   5.390
38989SOL     OW18973   3.079   3.436   2.799
38989SOL    HW118974   3.073   3.440   2.703
38989SOL    HW218975   3.091   3.343   2.818
38990SOL     OW18976   1.686   3.469   0.068
38990SOL    HW118977   1.752   3.466  -0.001
38990SOL    HW218978   1.729   3.515   0.140
38991SOL     OW18979   1.526   4.231   5.546
38991SOL    HW118980   1.490   4.219   5.458
38991SOL    HW218981   1.610   4.274   5.532
38992SOL     OW18982   0.243   3.236   6.963
38992SOL    HW118983   0.333   3.256   6.988
38992SOL    HW218984   0.220   3.158   7.014
38993SOL     OW18985   1.638   8.424   2.123
38993SOL    HW118986   1.731   8.438   2.104
38993SOL    HW218987   1.606   8.373   2.048
38994SOL     OW18988   1.011   9.377   0.739
38994SOL    HW118989   0.974   9.369   0.827
38994SOL    HW218990   1.057   9.461   0.739
38995SOL     OW18991  11.065   4.483   6.631
38995SOL    HW118992  11.050   4.500   6.724
38995SOL    HW218993  11.021   4.554   6.585
38996SOL     OW18994   3.404   9.790   4.667
38996SOL    HW118995   3.361   9.785   4.752
38996SOL    HW218996   3.475   9.853   4.680
38997SOL     OW18997   5.210   2.475   4.991
38997SOL    HW118998   5.122   2.504   4.969
38997SOL    HW218999   5.235   2.529   5.066
38998SOL     OW19000   1.987   5.006   3.728
38998SOL    HW119001   1.914   5.059   3.759
38998SOL    HW219002   2.024   4.967   3.807
38999SOL     OW19003   3.125   2.184  10.130
38999SOL    HW119004   3.095   2.273  10.114
38999SOL    HW219005   3.067   2.151  10.198
39000SOL     OW19006  10.835   2.151   6.620
39000SOL    HW119007  10.804   2.232   6.659
39000SOL    HW219008  10.774   2.134   6.548
39001SOL     OW19009  11.060   5.809   4.741
39001SOL    HW119010  11.056   5.835   4.833
39001SOL    HW219011  10.995   5.739   4.733
39002SOL     OW19012   7.382   3.257   4.033
39002SOL    HW119013   7.388   3.350   4.055
39002SOL    HW219014   7.288   3.240   4.027
39003SOL     OW19015   2.396   7.992   0.762
39003SOL    HW119016   2.433   8.030   0.682
39003SOL    HW219017   2.303   8.012   0.757
39004SOL     OW19018  10.065   8.107   6.937
39004SOL    HW119019   9.992   8.050   6.913
39004SOL    HW219020  10.131   8.091   6.869
39005SOL     OW19021   0.749   1.172   5.889
39005SOL    HW119022   0.705   1.135   5.812
39005SOL    HW219023   0.728   1.111   5.960
39006SOL     OW19024   1.948   5.403   9.030
39006SOL    HW119025   1.856   5.378   9.022
39006SOL    HW219026   1.981   5.352   9.104
39007SOL     OW19027  10.976   0.362   5.694
39007SOL    HW119028  11.001   0.401   5.610
39007SOL    HW219029  10.940   0.434   5.745
39008SOL     OW19030  10.902   0.443   6.006
39008SOL    HW119031  10.905   0.515   6.068
39008SOL    HW219032  10.987   0.445   5.962
39009SOL     OW19033   7.744   1.402   7.151
39009SOL    HW119034   7.758   1.491   7.120
39009SOL    HW219035   7.717   1.411   7.242
39010SOL     OW19036   6.103  11.033   1.635
39010SOL    HW119037   6.190  11.069   1.618
39010SOL    HW219038   6.044  11.107   1.624
39011SOL     OW19039  10.438   5.000   7.629
39011SOL    HW119040  10.483   5.025   7.709
39011SOL    HW219041  10.388   5.078   7.604
39012SOL     OW19042   5.724   5.338   3.736
39012SOL    HW119043   5.669   5.261   3.723
39012SOL    HW219044   5.681   5.387   3.805
39013SOL     OW19045   7.383   1.905  10.630
39013SOL    HW119046   7.466   1.876  10.591
39013SOL    HW219047   7.316   1.851  10.588
39014SOL     OW19048   0.140   2.312   8.639
39014SOL    HW119049   0.141   2.396   8.684
39014SOL    HW219050   0.120   2.333   8.548
39015SOL     OW19051   0.768  10.949   5.975
39015SOL    HW119052   0.763  10.895   6.053
39015SOL    HW219053   0.787  11.037   6.008
39016SOL     OW19054   1.600   1.124   4.485
39016SOL    HW119055   1.594   1.056   4.552
39016SOL    HW219056   1.571   1.081   4.404
39017SOL     OW19057   8.694   2.073   1.517
39017SOL    HW119058   8.715   2.054   1.608
39017SOL    HW219059   8.628   2.008   1.493
39018SOL     OW19060   8.304   5.787   0.488
39018SOL    HW119061   8.400   5.792   0.491
39018SOL    HW219062   8.282   5.799   0.395
39019SOL     OW19063   1.644   3.771   3.969
39019SOL    HW119064   1.563   3.755   3.920
39019SOL    HW219065   1.644   3.865   3.986
39020SOL     OW19066   7.279   2.882   6.134
39020SOL    HW119067   7.310   2.844   6.051
39020SOL    HW219068   7.359   2.901   6.183
39021SOL     OW19069   4.136  10.486   4.896
39021SOL    HW119070   4.107  10.484   4.805
39021SOL    HW219071   4.056  10.480   4.947
39022SOL     OW19072   2.577   4.728   9.547
39022SOL    HW119073   2.534   4.812   9.530
39022SOL    HW219074   2.505   4.665   9.551
39023SOL     OW19075   9.358   4.126   3.482
39023SOL    HW119076   9.293   4.111   3.413
39023SOL    HW219077   9.415   4.194   3.446
39024SOL     OW19078   8.781   6.054   7.170
39024SOL    HW119079   8.805   6.123   7.108
39024SOL    HW219080   8.827   6.077   7.250
39025SOL     OW19081   8.837   8.749   3.694
39025SOL    HW119082   8.757   8.698   3.682
39025SOL    HW219083   8.900   8.710   3.633
39026SOL     OW19084   7.392   4.144   3.078
39026SOL    HW119085   7.354   4.163   2.992
39026SOL    HW219086   7.457   4.075   3.061
39027SOL     OW19087   3.408   4.358   0.487
39027SOL    HW119088   3.332   4.314   0.449
39027SOL    HW219089   3.480   4.339   0.426
39028SOL     OW19090  11.036   4.829   3.243
39028SOL    HW119091  11.032   4.924   3.244
39028SOL    HW219092  11.129   4.809   3.229
39029SOL     OW19093   8.765   2.787   4.817
39029SOL    HW119094   8.718   2.869   4.804
39029SOL    HW219095   8.756   2.769   4.910
39030SOL     OW19096   5.160  10.599   3.207
39030SOL    HW119097   5.208  10.527   3.247
39030SOL    HW219098   5.068  10.583   3.229
39031SOL     OW19099   8.718   6.877   1.915
39031SOL    HW119100   8.784   6.885   1.984
39031SOL    HW219101   8.715   6.963   1.874
39032SOL     OW19102   1.140   8.604   8.214
39032SOL    HW119103   1.225   8.595   8.171
39032SOL    HW219104   1.104   8.686   8.180
39033SOL     OW19105   9.645   7.185   1.976
39033SOL    HW119106   9.644   7.093   1.949
39033SOL    HW219107   9.679   7.232   1.900
39034SOL     OW19108   8.142   3.227   1.803
39034SOL    HW119109   8.131   3.308   1.851
39034SOL    HW219110   8.235   3.205   1.813
39035SOL     OW19111   9.595   5.757   4.119
39035SOL    HW119112   9.652   5.690   4.079
39035SOL    HW219113   9.519   5.761   4.061
39036SOL     OW19114   9.136   5.892   2.591
39036SOL    HW119115   9.170   5.930   2.671
39036SOL    HW219116   9.106   5.805   2.617
39037SOL     OW19117   0.482   0.908   8.390
39037SOL    HW119118   0.414   0.944   8.333
39037SOL    HW219119   0.458   0.816   8.400
39038SOL     OW19120   8.780   8.388   0.904
39038SOL    HW119121   8.761   8.394   0.810
39038SOL    HW219122   8.723   8.318   0.936
39039SOL     OW19123   3.538   9.180   7.456
39039SOL    HW119124   3.478   9.170   7.530
39039SOL    HW219125   3.598   9.249   7.483
39040SOL     OW19126   8.353   6.258   5.572
39040SOL    HW119127   8.324   6.347   5.590
39040SOL    HW219128   8.441   6.268   5.537
39041SOL     OW19129   7.321   2.850   9.105
39041SOL    HW119130   7.416   2.840   9.102
39041SOL    HW219131   7.294   2.843   9.013
39042SOL     OW19132   7.717   5.439   0.586
39042SOL    HW119133   7.750   5.417   0.499
39042SOL    HW219134   7.743   5.530   0.599
39043SOL     OW19135   9.833   2.362   1.392
39043SOL    HW119136   9.833   2.412   1.473
39043SOL    HW219137   9.754   2.391   1.346
39044SOL     OW19138   2.780   2.603   0.314
39044SOL    HW119139   2.773   2.695   0.337
39044SOL    HW219140   2.728   2.594   0.234
39045SOL     OW19141   4.733   0.020   3.350
39045SOL    HW119142   4.650   0.065   3.334
39045SOL    HW219143   4.799   0.074   3.306
39046SOL     OW19144   7.324   3.603   3.255
39046SOL    HW119145   7.418   3.589   3.243
39046SOL    HW219146   7.316   3.633   3.345
39047SOL     OW19147   2.095  10.199   0.464
39047SOL    HW119148   2.102  10.187   0.558
39047SOL    HW219149   2.092  10.294   0.451
39048SOL     OW19150  10.698   8.391   1.577
39048SOL    HW119151  10.744   8.474   1.587
39048SOL    HW219152  10.699   8.352   1.664
39049SOL     OW19153   0.328   7.294   3.710
39049SOL    HW119154   0.366   7.346   3.639
39049SOL    HW219155   0.310   7.208   3.670
39050SOL     OW19156  10.798   6.550   5.343
39050SOL    HW119157  10.811   6.491   5.417
39050SOL    HW219158  10.715   6.522   5.305
39051SOL     OW19159   7.320   2.025   1.443
39051SOL    HW119160   7.314   2.035   1.538
39051SOL    HW219161   7.399   2.074   1.418
39052SOL     OW19162   1.572   7.075  10.750
39052SOL    HW119163   1.581   6.985  10.781
39052SOL    HW219164   1.530   7.066  10.664
39053SOL     OW19165   6.100   1.286   1.920
39053SOL    HW119166   6.055   1.356   1.966
39053SOL    HW219167   6.091   1.309   1.827
39054SOL     OW19168   5.377   2.021   0.408
39054SOL    HW119169   5.331   2.089   0.359
39054SOL    HW219170   5.313   1.950   0.415
39055SOL     OW19171   3.011   6.137   8.241
39055SOL    HW119172   2.918   6.151   8.258
39055SOL    HW219173   3.015   6.119   8.147
39056SOL     OW19174   0.638   0.526   0.359
39056SOL    HW119175   0.718   0.476   0.375
39056SOL    HW219176   0.569   0.475   0.402
39057SOL     OW19177   2.960   5.444   2.252
39057SOL    HW119178   2.872   5.461   2.285
39057SOL    HW219179   3.018   5.481   2.318
39058SOL     OW19180   4.545   3.265   3.707
39058SOL    HW119181   4.615   3.228   3.761
39058SOL    HW219182   4.572   3.355   3.692
39059SOL     OW19183   2.809   9.524   8.379
39059SOL    HW119184   2.785   9.433   8.360
39059SOL    HW219185   2.905   9.524   8.376
39060SOL     OW19186  10.385   4.571  10.799
39060SOL    HW119187  10.333   4.602  10.872
39060SOL    HW219188  10.437   4.647  10.772
39061SOL     OW19189   9.240  10.468   4.347
39061SOL    HW119190   9.257  10.376   4.367
39061SOL    HW219191   9.318  10.496   4.298
39062SOL     OW19192   8.179   3.126   9.415
39062SOL    HW119193   8.183   3.219   9.394
39062SOL    HW219194   8.094   3.097   9.381
39063SOL     OW19195   4.108   9.030   9.835
39063SOL    HW119196   4.131   9.087   9.762
39063SOL    HW219197   4.151   9.069   9.911
39064SOL     OW19198  11.018   3.413   5.064
39064SOL    HW119199  11.034   3.325   5.028
39064SOL    HW219200  11.078   3.420   5.138
39065SOL     OW19201  10.370   4.711  10.289
39065SOL    HW119202  10.385   4.805  10.285
39065SOL    HW219203  10.443   4.673  10.240
39066SOL     OW19204   8.872   5.735   0.265
39066SOL    HW119205   8.874   5.830   0.274
39066SOL    HW219206   8.792   5.708   0.309
39067SOL     OW19207   2.020   6.834   6.675
39067SOL    HW119208   2.107   6.797   6.660
39067SOL    HW219209   2.031   6.928   6.661
39068SOL     OW19210   2.733   4.518   7.511
39068SOL    HW119211   2.692   4.557   7.588
39068SOL    HW219212   2.800   4.581   7.485
39069SOL     OW19213   6.344   6.388   3.734
39069SOL    HW119214   6.411   6.452   3.713
39069SOL    HW219215   6.380   6.339   3.808
39070SOL     OW19216   3.498   2.886   4.688
39070SOL    HW119217   3.409   2.919   4.675
39070SOL    HW219218   3.525   2.919   4.773
39071SOL     OW19219   4.690   6.423   5.044
39071SOL    HW119220   4.713   6.394   5.132
39071SOL    HW219221   4.755   6.381   4.987
39072SOL     OW19222   6.820   1.418   6.014
39072SOL    HW119223   6.806   1.512   6.008
39072SOL    HW219224   6.876   1.397   5.938
39073SOL     OW19225   1.146   6.292   6.396
39073SOL    HW119226   1.225   6.330   6.435
39073SOL    HW219227   1.074   6.343   6.432
39074SOL     OW19228   0.504   2.946   7.103
39074SOL    HW119229   0.542   2.902   7.026
39074SOL    HW219230   0.535   2.894   7.177
39075SOL     OW19231  10.319   7.078   4.700
39075SOL    HW119232  10.355   7.009   4.756
39075SOL    HW219233  10.395   7.131   4.676
39076SOL     OW19234   3.562   6.089  10.224
39076SOL    HW119235   3.471   6.114  10.235
39076SOL    HW219236   3.585   6.043  10.305
39077SOL     OW19237   6.138  10.970   6.691
39077SOL    HW119238   6.109  11.025   6.618
39077SOL    HW219239   6.062  10.917   6.713
39078SOL     OW19240   0.497   3.104   0.212
39078SOL    HW119241   0.493   3.095   0.116
39078SOL    HW219242   0.525   3.018   0.243
39079SOL     OW19243   8.834   7.857   7.783
39079SOL    HW119244   8.857   7.920   7.715
39079SOL    HW219245   8.882   7.777   7.759
39080SOL     OW19246   4.614   8.076   3.514
39080SOL    HW119247   4.605   8.077   3.418
39080SOL    HW219248   4.532   8.037   3.545
39081SOL     OW19249  10.172   9.743   7.938
39081SOL    HW119250  10.139   9.658   7.967
39081SOL    HW219251  10.204   9.785   8.018
39082SOL     OW19252   5.438   5.612   3.564
39082SOL    HW119253   5.454   5.662   3.644
39082SOL    HW219254   5.368   5.659   3.519
39083SOL     OW19255   1.482   4.818   0.438
39083SOL    HW119256   1.439   4.790   0.357
39083SOL    HW219257   1.574   4.831   0.413
39084SOL     OW19258   5.121   4.025   5.864
39084SOL    HW119259   5.206   4.044   5.825
39084SOL    HW219260   5.109   4.093   5.929
39085SOL     OW19261   0.607   5.107   1.558
39085SOL    HW119262   0.601   5.062   1.473
39085SOL    HW219263   0.538   5.173   1.555
39086SOL     OW19264   5.385   2.254   4.128
39086SOL    HW119265   5.453   2.318   4.106
39086SOL    HW219266   5.318   2.266   4.061
39087SOL     OW19267   9.667   5.775   2.370
39087SOL    HW119268   9.652   5.834   2.296
39087SOL    HW219269   9.670   5.832   2.447
39088SOL     OW19270   1.727   1.994   2.574
39088SOL    HW119271   1.638   1.969   2.598
39088SOL    HW219272   1.776   1.991   2.656
39089SOL     OW19273   7.490   2.801   4.769
39089SOL    HW119274   7.396   2.792   4.783
39089SOL    HW219275   7.502   2.892   4.744
39090SOL     OW19276   0.303   6.704   4.466
39090SOL    HW119277   0.303   6.681   4.559
39090SOL    HW219278   0.383   6.754   4.454
39091SOL     OW19279   0.110   3.773  10.858
39091SOL    HW119280   0.140   3.836  10.792
39091SOL    HW219281   0.020   3.800  10.878
39092SOL     OW19282   7.779   6.057  10.334
39092SOL    HW119283   7.787   6.025  10.423
39092SOL    HW219284   7.830   6.138  10.332
39093SOL     OW19285   8.293   1.332   2.817
39093SOL    HW119286   8.355   1.403   2.800
39093SOL    HW219287   8.245   1.359   2.895
39094SOL     OW19288   3.883   8.510   8.073
39094SOL    HW119289   3.810   8.452   8.093
39094SOL    HW219290   3.926   8.525   8.157
39095SOL     OW19291   3.255   0.418   5.125
39095SOL    HW119292   3.227   0.329   5.103
39095SOL    HW219293   3.338   0.406   5.171
39096SOL     OW19294   1.496   7.754   3.532
39096SOL    HW119295   1.411   7.797   3.533
39096SOL    HW219296   1.525   7.755   3.623
39097SOL     OW19297   0.010   6.738   8.358
39097SOL    HW119298   0.076   6.699   8.415
39097SOL    HW219299   0.058   6.761   8.278
39098SOL     OW19300  11.055   4.465   4.973
39098SOL    HW119301  11.055   4.514   5.055
39098SOL    HW219302  11.020   4.526   4.908
39099SOL     OW19303   4.230   7.293   6.032
39099SOL    HW119304   4.199   7.228   6.095
39099SOL    HW219305   4.302   7.337   6.076
39100SOL     OW19306   1.197   8.455   6.062
39100SOL    HW119307   1.179   8.549   6.060
39100SOL    HW219308   1.271   8.444   6.002
39101SOL     OW19309   1.278  10.389   0.064
39101SOL    HW119310   1.368  10.373   0.036
39101SOL    HW219311   1.236  10.303   0.058
39102SOL     OW19312   6.844   5.646   1.350
39102SOL    HW119313   6.808   5.681   1.268
39102SOL    HW219314   6.917   5.591   1.322
39103SOL     OW19315   1.792   3.870   4.674
39103SOL    HW119316   1.868   3.928   4.675
39103SOL    HW219317   1.779   3.850   4.581
39104SOL     OW19318   2.912   5.797   8.992
39104SOL    HW119319   2.930   5.855   9.065
39104SOL    HW219320   2.840   5.742   9.022
39105SOL     OW19321  10.408   6.141   5.453
39105SOL    HW119322  10.332   6.086   5.472
39105SOL    HW219323  10.477   6.079   5.427
39106SOL     OW19324   2.821   5.027   3.997
39106SOL    HW119325   2.755   5.061   4.056
39106SOL    HW219326   2.790   4.939   3.974
39107SOL     OW19327  10.803   6.218   5.871
39107SOL    HW119328  10.869   6.247   5.807
39107SOL    HW219329  10.789   6.125   5.851
39108SOL     OW19330   8.477   0.832   2.672
39108SOL    HW119331   8.520   0.753   2.705
39108SOL    HW219332   8.463   0.886   2.750
39109SOL     OW19333   6.971   5.353   3.558
39109SOL    HW119334   6.891   5.405   3.552
39109SOL    HW219335   6.944   5.271   3.599
39110SOL     OW19336   1.534   1.316   0.690
39110SOL    HW119337   1.616   1.268   0.700
39110SOL    HW219338   1.513   1.347   0.778
39111SOL     OW19339   4.841   4.781   4.054
39111SOL    HW119340   4.773   4.732   4.099
39111SOL    HW219341   4.903   4.806   4.122
39112SOL     OW19342   9.258   3.792  10.722
39112SOL    HW119343   9.210   3.754  10.648
39112SOL    HW219344   9.337   3.738  10.730
39113SOL     OW19345   0.139   9.838   4.047
39113SOL    HW119346   0.157   9.744   4.057
39113SOL    HW219347   0.212   9.881   4.092
39114SOL     OW19348  10.354   3.171   4.623
39114SOL    HW119349  10.414   3.245   4.617
39114SOL    HW219350  10.298   3.191   4.698
39115SOL     OW19351  10.906   7.784   7.797
39115SOL    HW119352  10.812   7.793   7.811
39115SOL    HW219353  10.928   7.855   7.737
39116SOL     OW19354   0.023   5.628   4.238
39116SOL    HW119355   0.013   5.673   4.321
39116SOL    HW219356   0.072   5.689   4.183
39117SOL     OW19357   5.771   9.803   4.383
39117SOL    HW119358   5.730   9.721   4.353
39117SOL    HW219359   5.862   9.779   4.400
39118SOL     OW19360   3.041   1.454   4.269
39118SOL    HW119361   2.967   1.439   4.210
39118SOL    HW219362   3.118   1.433   4.216
39119SOL     OW19363   0.993  10.948  10.758
39119SOL    HW119364   1.016  10.985  10.843
39119SOL    HW219365   1.072  10.901  10.730
39120SOL     OW19366   9.744   2.565   1.166
39120SOL    HW119367   9.832   2.596   1.185
39120SOL    HW219368   9.699   2.567   1.250
39121SOL     OW19369   1.135   8.644   9.579
39121SOL    HW119370   1.160   8.588   9.505
39121SOL    HW219371   1.193   8.616   9.650
39122SOL     OW19372  10.651   8.052   2.555
39122SOL    HW119373  10.714   8.108   2.510
39122SOL    HW219374  10.704   7.984   2.597
39123SOL     OW19375  10.442   9.843   0.518
39123SOL    HW119376  10.537   9.843   0.509
39123SOL    HW219377  10.410   9.873   0.433
39124SOL     OW19378   4.645   6.110   9.317
39124SOL    HW119379   4.620   6.148   9.401
39124SOL    HW219380   4.588   6.152   9.253
39125SOL     OW19381   8.279   5.245   6.182
39125SOL    HW119382   8.339   5.314   6.210
39125SOL    HW219383   8.193   5.273   6.213
39126SOL     OW19384  10.820   7.296   9.707
39126SOL    HW119385  10.883   7.233   9.670
39126SOL    HW219386  10.832   7.375   9.654
39127SOL     OW19387   4.496   6.757   0.340
39127SOL    HW119388   4.532   6.844   0.322
39127SOL    HW219389   4.529   6.735   0.427
39128SOL     OW19390   2.225   5.577   5.603
39128SOL    HW119391   2.257   5.618   5.683
39128SOL    HW219392   2.277   5.617   5.533
39129SOL     OW19393   9.692   2.354   3.754
39129SOL    HW119394   9.712   2.369   3.846
39129SOL    HW219395   9.608   2.397   3.740
39130SOL     OW19396  10.218  10.700   1.099
39130SOL    HW119397  10.163  10.622   1.094
39130SOL    HW219398  10.172  10.765   1.046
39131SOL     OW19399   2.699   2.713   1.796
39131SOL    HW119400   2.704   2.795   1.844
39131SOL    HW219401   2.725   2.735   1.706
39132SOL     OW19402   2.837   4.223  10.718
39132SOL    HW119403   2.790   4.140  10.728
39132SOL    HW219404   2.777   4.280  10.670
39133SOL     OW19405   4.958   9.398   3.850
39133SOL    HW119406   4.891   9.389   3.917
39133SOL    HW219407   4.911   9.387   3.767
39134SOL     OW19408   8.399  10.339   8.025
39134SOL    HW119409   8.389  10.263   8.082
39134SOL    HW219410   8.322  10.337   7.968
39135SOL     OW19411   9.687   2.963   2.314
39135SOL    HW119412   9.675   2.900   2.242
39135SOL    HW219413   9.656   2.917   2.392
39136SOL     OW19414   8.571   3.035   6.593
39136SOL    HW119415   8.564   3.082   6.676
39136SOL    HW219416   8.538   3.096   6.527
39137SOL     OW19417   1.133  10.164   9.552
39137SOL    HW119418   1.176  10.084   9.520
39137SOL    HW219419   1.069  10.186   9.484
39138SOL     OW19420   9.579   3.340   9.586
39138SOL    HW119421   9.553   3.394   9.660
39138SOL    HW219422   9.554   3.251   9.611
39139SOL     OW19423   6.042   2.705   3.820
39139SOL    HW119424   6.108   2.636   3.829
39139SOL    HW219425   5.973   2.665   3.767
39140SOL     OW19426  11.017   7.047   1.233
39140SOL    HW119427  11.105   7.011   1.243
39140SOL    HW219428  11.020   7.131   1.279
39141SOL     OW19429   7.234   7.355   4.711
39141SOL    HW119430   7.281   7.388   4.634
39141SOL    HW219431   7.144   7.342   4.680
39142SOL     OW19432   9.070   4.813   0.047
39142SOL    HW119433   9.009   4.884   0.027
39142SOL    HW219434   9.094   4.777  -0.038
39143SOL     OW19435  10.757   4.695   2.621
39143SOL    HW119436  10.794   4.702   2.533
39143SOL    HW219437  10.702   4.773   2.630
39144SOL     OW19438   0.676   7.913   2.712
39144SOL    HW119439   0.763   7.884   2.740
39144SOL    HW219440   0.670   8.003   2.742
39145SOL     OW19441   6.496   8.985   4.400
39145SOL    HW119442   6.513   8.924   4.472
39145SOL    HW219443   6.401   8.988   4.393
39146SOL     OW19444   1.672   2.770   9.960
39146SOL    HW119445   1.706   2.856   9.983
39146SOL    HW219446   1.584   2.768   9.997
39147SOL     OW19447   4.293   4.365   2.931
39147SOL    HW119448   4.387   4.384   2.927
39147SOL    HW219449   4.286   4.291   2.991
39148SOL     OW19450   9.615   3.776   3.415
39148SOL    HW119451   9.683   3.843   3.407
39148SOL    HW219452   9.617   3.750   3.507
39149SOL     OW19453   1.124   6.314   3.492
39149SOL    HW119454   1.090   6.244   3.548
39149SOL    HW219455   1.088   6.295   3.405
39150SOL     OW19456   5.691   2.868   2.586
39150SOL    HW119457   5.641   2.786   2.584
39150SOL    HW219458   5.729   2.871   2.674
39151SOL     OW19459  10.531  10.938  10.150
39151SOL    HW119460  10.546  10.863  10.207
39151SOL    HW219461  10.591  10.925  10.076
39152SOL     OW19462   1.441   1.085   3.918
39152SOL    HW119463   1.383   1.015   3.889
39152SOL    HW219464   1.512   1.085   3.853
39153SOL     OW19465   9.398   9.547   6.099
39153SOL    HW119466   9.348   9.468   6.122
39153SOL    HW219467   9.376   9.563   6.007
39154SOL     OW19468   1.165   8.897   3.481
39154SOL    HW119469   1.245   8.852   3.452
39154SOL    HW219470   1.098   8.829   3.480
39155SOL     OW19471   1.972   4.573   7.530
39155SOL    HW119472   2.046   4.615   7.486
39155SOL    HW219473   2.011   4.530   7.606
39156SOL     OW19474   0.377   1.098   5.038
39156SOL    HW119475   0.426   1.115   4.957
39156SOL    HW219476   0.298   1.152   5.030
39157SOL     OW19477   3.424   6.828   1.449
39157SOL    HW119478   3.450   6.765   1.516
39157SOL    HW219479   3.383   6.775   1.380
39158SOL     OW19480   7.909   7.349   4.160
39158SOL    HW119481   7.957   7.274   4.195
39158SOL    HW219482   7.962   7.424   4.184
39159SOL     OW19483   1.745   1.713   7.216
39159SOL    HW119484   1.709   1.702   7.304
39159SOL    HW219485   1.671   1.740   7.162
39160SOL     OW19486   1.421   0.168   8.391
39160SOL    HW119487   1.460   0.237   8.337
39160SOL    HW219488   1.334   0.201   8.413
39161SOL     OW19489   4.019  10.461   4.646
39161SOL    HW119490   3.986  10.479   4.557
39161SOL    HW219491   4.003  10.368   4.659
39162SOL     OW19492   6.080   8.375   6.956
39162SOL    HW119493   6.048   8.405   6.871
39162SOL    HW219494   6.133   8.298   6.936
39163SOL     OW19495   1.616   6.374   7.600
39163SOL    HW119496   1.536   6.324   7.584
39163SOL    HW219497   1.684   6.325   7.554
39164SOL     OW19498   8.513   0.801   6.773
39164SOL    HW119499   8.452   0.853   6.825
39164SOL    HW219500   8.458   0.755   6.710
39165SOL     OW19501   8.747   8.414   9.004
39165SOL    HW119502   8.800   8.369   8.938
39165SOL    HW219503   8.810   8.464   9.055
39166SOL     OW19504   2.489   7.270   3.976
39166SOL    HW119505   2.445   7.279   4.060
39166SOL    HW219506   2.428   7.219   3.922
39167SOL     OW19507   1.710   0.840   7.979
39167SOL    HW119508   1.690   0.928   8.010
39167SOL    HW219509   1.787   0.851   7.923
39168SOL     OW19510   1.889   6.447   9.113
39168SOL    HW119511   1.808   6.493   9.090
39168SOL    HW219512   1.880   6.361   9.072
39169SOL     OW19513  10.781   0.591   5.769
39169SOL    HW119514  10.769   0.602   5.863
39169SOL    HW219515  10.872   0.616   5.753
39170SOL     OW19516   8.448  10.963   0.060
39170SOL    HW119517   8.540  10.967   0.033
39170SOL    HW219518   8.407  10.905  -0.004
39171SOL     OW19519   2.433   2.001   2.920
39171SOL    HW119520   2.442   2.059   2.844
39171SOL    HW219521   2.520   1.962   2.931
39172SOL     OW19522   3.781  10.724   4.294
39172SOL    HW119523   3.841  10.767   4.233
39172SOL    HW219524   3.695  10.735   4.254
39173SOL     OW19525   7.756   6.541   2.593
39173SOL    HW119526   7.813   6.474   2.554
39173SOL    HW219527   7.703   6.572   2.520
39174SOL     OW19528   6.813  10.029   1.326
39174SOL    HW119529   6.800   9.982   1.408
39174SOL    HW219530   6.759   9.981   1.263
39175SOL     OW19531  11.059   0.945   8.674
39175SOL    HW119532  11.033   0.877   8.736
39175SOL    HW219533  10.990   1.011   8.679
39176SOL     OW19534  10.871   1.950   9.768
39176SOL    HW119535  10.812   1.928   9.696
39176SOL    HW219536  10.911   1.866   9.792
39177SOL     OW19537   1.744   7.492   0.459
39177SOL    HW119538   1.732   7.404   0.423
39177SOL    HW219539   1.826   7.487   0.508
39178SOL     OW19540  10.805   9.126   3.547
39178SOL    HW119541  10.896   9.121   3.518
39178SOL    HW219542  10.771   9.205   3.505
39179SOL     OW19543   1.188   1.273   9.259
39179SOL    HW119544   1.118   1.220   9.220
39179SOL    HW219545   1.202   1.343   9.196
39180SOL     OW19546   4.255   0.109   0.564
39180SOL    HW119547   4.248   0.057   0.644
39180SOL    HW219548   4.339   0.155   0.572
39181SOL     OW19549   3.649   3.112   3.933
39181SOL    HW119550   3.685   3.095   4.020
39181SOL    HW219551   3.557   3.088   3.939
39182SOL     OW19552   6.897   7.529   7.064
39182SOL    HW119553   6.871   7.594   6.998
39182SOL    HW219554   6.877   7.570   7.148
39183SOL     OW19555   3.388   4.291   8.198
39183SOL    HW119556   3.483   4.283   8.188
39183SOL    HW219557   3.371   4.384   8.190
39184SOL     OW19558   8.154   1.822   7.408
39184SOL    HW119559   8.185   1.870   7.331
39184SOL    HW219560   8.093   1.757   7.372
39185SOL     OW19561   2.299   5.519   3.983
39185SOL    HW119562   2.215   5.502   3.941
39185SOL    HW219563   2.293   5.475   4.068
39186SOL     OW19564  10.297   1.568   2.913
39186SOL    HW119565  10.233   1.638   2.916
39186SOL    HW219566  10.370   1.600   2.966
39187SOL     OW19567   7.219   1.373   6.122
39187SOL    HW119568   7.140   1.420   6.148
39187SOL    HW219569   7.253   1.422   6.047
39188SOL     OW19570   8.043   6.397   1.261
39188SOL    HW119571   8.137   6.402   1.276
39188SOL    HW219572   8.017   6.487   1.242
39189SOL     OW19573  10.141   6.555   6.120
39189SOL    HW119574  10.109   6.642   6.097
39189SOL    HW219575  10.230   6.552   6.085
39190SOL     OW19576   2.131   4.402   7.215
39190SOL    HW119577   2.206   4.461   7.214
39190SOL    HW219578   2.170   4.314   7.216
39191SOL     OW19579   0.383   7.057   4.079
39191SOL    HW119580   0.374   6.961   4.077
39191SOL    HW219581   0.316   7.089   4.019
39192SOL     OW19582   2.554  10.093  10.209
39192SOL    HW119583   2.517  10.124  10.126
39192SOL    HW219584   2.649  10.096  10.195
39193SOL     OW19585  10.452   8.277   3.127
39193SOL    HW119586  10.396   8.354   3.119
39193SOL    HW219587  10.395   8.204   3.102
39194SOL     OW19588   1.126   4.041   1.868
39194SOL    HW119589   1.209   4.000   1.894
39194SOL    HW219590   1.151   4.129   1.841
39195SOL     OW19591   8.936   9.437   4.211
39195SOL    HW119592   8.898   9.428   4.298
39195SOL    HW219593   8.864   9.467   4.156
39196SOL     OW19594   0.575   1.855  10.278
39196SOL    HW119595   0.495   1.828  10.322
39196SOL    HW219596   0.641   1.793  10.309
39197SOL     OW19597   2.195   2.376   3.613
39197SOL    HW119598   2.108   2.354   3.580
39197SOL    HW219599   2.218   2.302   3.669
39198SOL     OW19600   9.241   7.261   7.346
39198SOL    HW119601   9.169   7.261   7.409
39198SOL    HW219602   9.251   7.169   7.321
39199SOL     OW19603  10.349   1.592   5.319
39199SOL    HW119604  10.384   1.511   5.281
39199SOL    HW219605  10.285   1.562   5.383
39200SOL     OW19606   5.780   7.634   8.708
39200SOL    HW119607   5.689   7.608   8.696
39200SOL    HW219608   5.795   7.627   8.802
39201SOL     OW19609   8.982  10.844   3.106
39201SOL    HW119610   9.043  10.855   3.033
39201SOL    HW219611   8.898  10.876   3.072
39202SOL     OW19612   7.906   1.360   2.263
39202SOL    HW119613   7.957   1.437   2.237
39202SOL    HW219614   7.872   1.381   2.350
39203SOL     OW19615   8.193   5.640   8.803
39203SOL    HW119616   8.163   5.663   8.891
39203SOL    HW219617   8.284   5.670   8.800
39204SOL     OW19618   9.104   5.252   8.526
39204SOL    HW119619   9.094   5.167   8.483
39204SOL    HW219620   9.147   5.307   8.460
39205SOL     OW19621   6.388   2.278   3.066
39205SOL    HW119622   6.479   2.294   3.091
39205SOL    HW219623   6.336   2.320   3.134
39206SOL     OW19624   3.233   2.137   5.431
39206SOL    HW119625   3.274   2.062   5.475
39206SOL    HW219626   3.290   2.155   5.356
39207SOL     OW19627   1.251   3.610   6.200
39207SOL    HW119628   1.272   3.698   6.170
39207SOL    HW219629   1.197   3.573   6.130
39208SOL     OW19630   6.499   8.059  10.488
39208SOL    HW119631   6.474   7.979  10.534
39208SOL    HW219632   6.549   8.028  10.412
39209SOL     OW19633   0.971   4.042   5.044
39209SOL    HW119634   1.057   4.067   5.078
39209SOL    HW219635   0.909   4.099   5.090
39210SOL     OW19636  10.517   4.977   1.336
39210SOL    HW119637  10.481   4.915   1.272
39210SOL    HW219638  10.521   5.060   1.289
39211SOL     OW19639   1.970  10.114   9.366
39211SOL    HW119640   1.877  10.101   9.346
39211SOL    HW219641   1.982  10.209   9.366
39212SOL     OW19642   2.542   6.678   6.303
39212SOL    HW119643   2.554   6.656   6.210
39212SOL    HW219644   2.555   6.595   6.348
39213SOL     OW19645   2.885   7.691   3.707
39213SOL    HW119646   2.852   7.678   3.618
39213SOL    HW219647   2.807   7.704   3.760
39214SOL     OW19648   2.673   7.210   1.757
39214SOL    HW119649   2.681   7.304   1.770
39214SOL    HW219650   2.750   7.186   1.705
39215SOL     OW19651   6.522   6.474   7.477
39215SOL    HW119652   6.505   6.442   7.388
39215SOL    HW219653   6.516   6.569   7.470
39216SOL     OW19654   9.917   1.015  10.321
39216SOL    HW119655   9.891   0.930  10.284
39216SOL    HW219656   9.947   0.994  10.409
39217SOL     OW19657   5.797   4.573   2.561
39217SOL    HW119658   5.702   4.567   2.565
39217SOL    HW219659   5.817   4.572   2.467
39218SOL     OW19660   6.421   4.644   9.383
39218SOL    HW119661   6.345   4.592   9.410
39218SOL    HW219662   6.431   4.624   9.290
39219SOL     OW19663   3.549   5.753  10.201
39219SOL    HW119664   3.626   5.788  10.155
39219SOL    HW219665   3.508   5.694  10.137
39220SOL     OW19666  10.316   8.022   4.821
39220SOL    HW119667  10.281   7.935   4.799
39220SOL    HW219668  10.244   8.066   4.867
39221SOL     OW19669   2.741   5.605   9.114
39221SOL    HW119670   2.700   5.532   9.067
39221SOL    HW219671   2.833   5.580   9.120
39222SOL     OW19672   2.926   4.234   1.351
39222SOL    HW119673   2.934   4.198   1.262
39222SOL    HW219674   2.885   4.163   1.401
39223SOL     OW19675   4.293   2.743   9.623
39223SOL    HW119676   4.364   2.765   9.562
39223SOL    HW219677   4.336   2.691   9.691
39224SOL     OW19678  10.497   6.670   5.749
39224SOL    HW119679  10.484   6.729   5.675
39224SOL    HW219680  10.542   6.594   5.711
39225SOL     OW19681   8.373   3.041   5.705
39225SOL    HW119682   8.392   2.951   5.676
39225SOL    HW219683   8.378   3.093   5.625
39226SOL     OW19684   6.666   0.838   3.498
39226SOL    HW119685   6.757   0.835   3.527
39226SOL    HW219686   6.622   0.773   3.552
39227SOL     OW19687   4.791   5.031   8.391
39227SOL    HW119688   4.716   4.976   8.414
39227SOL    HW219689   4.796   5.095   8.461
39228SOL     OW19690   5.732   1.034   0.806
39228SOL    HW119691   5.769   0.947   0.789
39228SOL    HW219692   5.783   1.093   0.750
39229SOL     OW19693   0.772  10.919   6.740
39229SOL    HW119694   0.687  10.876   6.735
39229SOL    HW219695   0.792  10.944   6.649
39230SOL     OW19696   1.974   7.392   4.967
39230SOL    HW119697   1.914   7.464   4.949
39230SOL    HW219698   2.061   7.428   4.950
39231SOL     OW19699  10.646   9.955   7.754
39231SOL    HW119700  10.742   9.953   7.752
39231SOL    HW219701  10.622   9.890   7.820
39232SOL     OW19702   1.585   8.195   0.025
39232SOL    HW119703   1.565   8.277   0.070
39232SOL    HW219704   1.580   8.128   0.094
39233SOL     OW19705  10.353   1.350   4.447
39233SOL    HW119706  10.416   1.349   4.519
39233SOL    HW219707  10.267   1.352   4.489
39234SOL     OW19708   9.079   3.847   7.472
39234SOL    HW119709   9.135   3.888   7.406
39234SOL    HW219710   8.996   3.833   7.427
39235SOL     OW19711   6.261   4.432   4.074
39235SOL    HW119712   6.178   4.471   4.100
39235SOL    HW219713   6.236   4.360   4.016
39236SOL     OW19714   2.469   3.998   8.134
39236SOL    HW119715   2.434   4.069   8.081
39236SOL    HW219716   2.419   4.000   8.215
39237SOL     OW19717   8.409   3.713   3.966
39237SOL    HW119718   8.471   3.663   3.912
39237SOL    HW219719   8.464   3.761   4.028
39238SOL     OW19720   9.342   5.741  10.050
39238SOL    HW119721   9.349   5.646  10.062
39238SOL    HW219722   9.372   5.778  10.133
39239SOL     OW19723   0.809   5.982   7.554
39239SOL    HW119724   0.881   5.995   7.615
39239SOL    HW219725   0.848   5.997   7.468
39240SOL     OW19726   2.375   8.209   4.085
39240SOL    HW119727   2.305   8.161   4.040
39240SOL    HW219728   2.350   8.301   4.076
39241SOL     OW19729   5.055   9.398  10.675
39241SOL    HW119730   5.129   9.351  10.636
39241SOL    HW219731   5.093   9.480  10.707
39242SOL     OW19732   7.690   2.229   6.811
39242SOL    HW119733   7.781   2.203   6.827
39242SOL    HW219734   7.660   2.168   6.743
39243SOL     OW19735   5.597   5.952   2.347
39243SOL    HW119736   5.507   5.957   2.379
39243SOL    HW219737   5.626   6.043   2.342
39244SOL     OW19738   9.586   6.434   6.614
39244SOL    HW119739   9.519   6.424   6.546
39244SOL    HW219740   9.576   6.357   6.670
39245SOL     OW19741   3.242   9.600   5.840
39245SOL    HW119742   3.152   9.574   5.860
39245SOL    HW219743   3.281   9.522   5.800
39246SOL     OW19744   5.423   3.553  10.769
39246SOL    HW119745   5.369   3.619  10.726
39246SOL    HW219746   5.370   3.523  10.843
39247SOL     OW19747   9.929   5.682   6.106
39247SOL    HW119748   9.842   5.687   6.067
39247SOL    HW219749   9.985   5.733   6.047
39248SOL     OW19750   6.876   6.759   7.235
39248SOL    HW119751   6.961   6.796   7.257
39248SOL    HW219752   6.897   6.672   7.199
39249SOL     OW19753   2.404   8.757  10.094
39249SOL    HW119754   2.412   8.758  10.189
39249SOL    HW219755   2.493   8.742  10.062
39250SOL     OW19756  10.695   8.505   9.445
39250SOL    HW119757  10.718   8.534   9.357
39250SOL    HW219758  10.641   8.575   9.480
39251SOL     OW19759   6.984  10.841   4.006
39251SOL    HW119760   7.020  10.852   3.918
39251SOL    HW219761   7.048  10.786   4.051
39252SOL     OW19762   8.665   5.924   3.748
39252SOL    HW119763   8.571   5.937   3.737
39252SOL    HW219764   8.695   5.895   3.662
39253SOL     OW19765   4.977   8.325  10.152
39253SOL    HW119766   4.899   8.309  10.204
39253SOL    HW219767   4.998   8.417  10.165
39254SOL     OW19768   2.745   8.576   7.297
39254SOL    HW119769   2.757   8.485   7.325
39254SOL    HW219770   2.696   8.569   7.215
39255SOL     OW19771   9.404   3.442   1.865
39255SOL    HW119772   9.355   3.388   1.802
39255SOL    HW219773   9.340   3.463   1.933
39256SOL     OW19774   9.449   9.285   2.514
39256SOL    HW119775   9.438   9.196   2.549
39256SOL    HW219776   9.529   9.317   2.556
39257SOL     OW19777   3.379   3.733   3.383
39257SOL    HW119778   3.350   3.766   3.468
39257SOL    HW219779   3.391   3.811   3.329
39258SOL     OW19780   2.103   6.853   3.348
39258SOL    HW119781   2.078   6.761   3.357
39258SOL    HW219782   2.187   6.860   3.394
39259SOL     OW19783   0.257   7.722   5.610
39259SOL    HW119784   0.344   7.761   5.607
39259SOL    HW219785   0.224   7.731   5.520
39260SOL     OW19786   1.903   3.290   2.727
39260SOL    HW119787   1.863   3.203   2.736
39260SOL    HW219788   1.993   3.278   2.757
39261SOL     OW19789   8.761   9.704   8.049
39261SOL    HW119790   8.791   9.643   8.116
39261SOL    HW219791   8.834   9.711   7.988
39262SOL     OW19792  10.000   4.207   3.755
39262SOL    HW119793   9.919   4.175   3.715
39262SOL    HW219794   9.990   4.190   3.848
39263SOL     OW19795   8.195   6.817   7.017
39263SOL    HW119796   8.281   6.775   7.018
39263SOL    HW219797   8.175   6.826   6.924
39264SOL     OW19798   9.738   6.925   1.937
39264SOL    HW119799   9.729   6.890   1.848
39264SOL    HW219800   9.692   6.862   1.992
39265SOL     OW19801   1.814   2.872  10.291
39265SOL    HW119802   1.756   2.812  10.337
39265SOL    HW219803   1.901   2.833  10.301
39266SOL     OW19804   7.572   0.592   1.735
39266SOL    HW119805   7.509   0.608   1.805
39266SOL    HW219806   7.655   0.628   1.767
39267SOL     OW19807   5.215   7.413   1.396
39267SOL    HW119808   5.284   7.423   1.461
39267SOL    HW219809   5.136   7.395   1.447
39268SOL     OW19810   9.268   7.086   1.171
39268SOL    HW119811   9.329   7.065   1.100
39268SOL    HW219812   9.211   7.009   1.177
39269SOL     OW19813   1.701   5.520   4.917
39269SOL    HW119814   1.625   5.483   4.961
39269SOL    HW219815   1.756   5.444   4.897
39270SOL     OW19816   4.505   3.188   5.540
39270SOL    HW119817   4.505   3.096   5.568
39270SOL    HW219818   4.438   3.192   5.472
39271SOL     OW19819   2.301   6.091   8.428
39271SOL    HW119820   2.391   6.092   8.461
39271SOL    HW219821   2.247   6.106   8.505
39272SOL     OW19822  10.836   7.103   8.136
39272SOL    HW119823  10.878   7.141   8.058
39272SOL    HW219824  10.818   7.012   8.111
39273SOL     OW19825   9.785   6.528   5.122
39273SOL    HW119826   9.712   6.544   5.062
39273SOL    HW219827   9.804   6.613   5.161
39274SOL     OW19828  10.559  10.990   2.812
39274SOL    HW119829  10.652  10.977   2.831
39274SOL    HW219830  10.558  11.049   2.736
39275SOL     OW19831   6.136   6.356   8.083
39275SOL    HW119832   6.110   6.412   8.010
39275SOL    HW219833   6.054   6.324   8.120
39276SOL     OW19834   7.995   1.587   1.679
39276SOL    HW119835   7.954   1.630   1.604
39276SOL    HW219836   7.927   1.587   1.746
39277SOL     OW19837   9.730   4.336   7.861
39277SOL    HW119838   9.649   4.384   7.875
39277SOL    HW219839   9.755   4.304   7.948
39278SOL     OW19840   9.485   4.161   8.214
39278SOL    HW119841   9.538   4.111   8.152
39278SOL    HW219842   9.417   4.100   8.241
39279SOL     OW19843   2.253   8.596   9.946
39279SOL    HW119844   2.162   8.604   9.975
39279SOL    HW219845   2.302   8.660   9.998
39280SOL     OW19846  10.545   7.510   3.613
39280SOL    HW119847  10.479   7.455   3.655
39280SOL    HW219848  10.549   7.588   3.667
39281SOL     OW19849   5.465   2.731   3.338
39281SOL    HW119850   5.424   2.767   3.416
39281SOL    HW219851   5.532   2.795   3.313
39282SOL     OW19852   1.367   2.839   5.234
39282SOL    HW119853   1.378   2.754   5.191
39282SOL    HW219854   1.295   2.825   5.295
39283SOL     OW19855   8.339   9.495   8.385
39283SOL    HW119856   8.341   9.425   8.320
39283SOL    HW219857   8.428   9.530   8.385
39284SOL     OW19858   0.453   5.765   0.608
39284SOL    HW119859   0.519   5.736   0.545
39284SOL    HW219860   0.495   5.835   0.656
39285SOL     OW19861  11.025   5.643   8.599
39285SOL    HW119862  11.097   5.592   8.561
39285SOL    HW219863  10.947   5.612   8.553
39286SOL     OW19864   5.613   2.424   3.801
39286SOL    HW119865   5.563   2.375   3.736
39286SOL    HW219866   5.687   2.367   3.822
39287SOL     OW19867   0.764   4.970   3.187
39287SOL    HW119868   0.803   4.986   3.101
39287SOL    HW219869   0.692   4.909   3.170
39288SOL     OW19870   5.972   9.973   6.446
39288SOL    HW119871   6.005   9.883   6.451
39288SOL    HW219872   6.007  10.006   6.363
39289SOL     OW19873   0.008   8.720   8.244
39289SOL    HW119874  -0.087   8.718   8.255
39289SOL    HW219875   0.041   8.761   8.324
39290SOL     OW19876  10.008   5.036   7.493
39290SOL    HW119877   9.934   5.084   7.530
39290SOL    HW219878  10.026   5.080   7.410
39291SOL     OW19879   4.470   4.056   5.041
39291SOL    HW119880   4.388   4.073   5.088
39291SOL    HW219881   4.522   4.135   5.054
39292SOL     OW19882   2.255   8.796   2.418
39292SOL    HW119883   2.341   8.757   2.431
39292SOL    HW219884   2.240   8.789   2.323
39293SOL     OW19885   0.857   3.489   6.720
39293SOL    HW119886   0.923   3.420   6.723
39293SOL    HW219887   0.776   3.445   6.746
39294SOL     OW19888   1.978   4.894   7.178
39294SOL    HW119889   1.983   4.983   7.144
39294SOL    HW219890   1.961   4.904   7.271
39295SOL     OW19891   1.929   0.390   8.565
39295SOL    HW119892   1.843   0.414   8.532
39295SOL    HW219893   1.984   0.466   8.546
39296SOL     OW19894   0.195   1.999   5.403
39296SOL    HW119895   0.246   2.072   5.369
39296SOL    HW219896   0.125   1.987   5.339
39297SOL     OW19897   6.830   4.918   0.024
39297SOL    HW119898   6.838   4.930  -0.070
39297SOL    HW219899   6.761   4.979   0.051
39298SOL     OW19900   5.785   5.575  11.060
39298SOL    HW119901   5.823   5.632  10.993
39298SOL    HW219902   5.793   5.624  11.141
39299SOL     OW19903   9.614   6.088   9.252
39299SOL    HW119904   9.586   6.176   9.274
39299SOL    HW219905   9.699   6.099   9.209
39300SOL     OW19906   5.157   3.828   1.850
39300SOL    HW119907   5.230   3.789   1.802
39300SOL    HW219908   5.186   3.830   1.941
39301SOL     OW19909   2.798   6.742   7.438
39301SOL    HW119910   2.854   6.818   7.426
39301SOL    HW219911   2.717   6.777   7.473
39302SOL     OW19912  10.506   0.914   2.120
39302SOL    HW119913  10.571   0.925   2.050
39302SOL    HW219914  10.439   0.980   2.101
39303SOL     OW19915   8.763   1.466   6.355
39303SOL    HW119916   8.676   1.463   6.315
39303SOL    HW219917   8.758   1.405   6.428
39304SOL     OW19918   2.007   7.347   2.188
39304SOL    HW119919   1.970   7.427   2.151
39304SOL    HW219920   2.012   7.286   2.114
39305SOL     OW19921   2.089   6.906   3.045
39305SOL    HW119922   2.101   6.995   3.076
39305SOL    HW219923   2.093   6.852   3.124
39306SOL     OW19924   7.658   7.126   0.835
39306SOL    HW119925   7.565   7.123   0.813
39306SOL    HW219926   7.700   7.074   0.766
39307SOL     OW19927   9.567   3.172   5.659
39307SOL    HW119928   9.660   3.193   5.651
39307SOL    HW219929   9.543   3.139   5.572
39308SOL     OW19930   9.107   4.670   8.324
39308SOL    HW119931   9.015   4.646   8.315
39308SOL    HW219932   9.155   4.591   8.297
39309SOL     OW19933   8.308   0.296   3.851
39309SOL    HW119934   8.358   0.231   3.802
39309SOL    HW219935   8.220   0.291   3.814
39310SOL     OW19936   1.533   2.062   4.357
39310SOL    HW119937   1.537   2.045   4.451
39310SOL    HW219938   1.552   2.155   4.348
39311SOL     OW19939   8.226   2.319   5.955
39311SOL    HW119940   8.217   2.334   5.861
39311SOL    HW219941   8.270   2.397   5.988
39312SOL     OW19942   5.827  10.992   0.630
39312SOL    HW119943   5.749  10.946   0.661
39312SOL    HW219944   5.793  11.062   0.574
39313SOL     OW19945   9.110   2.220   4.773
39313SOL    HW119946   9.051   2.260   4.709
39313SOL    HW219947   9.111   2.127   4.749
39314SOL     OW19948   3.345   2.039   3.975
39314SOL    HW119949   3.421   2.095   3.959
39314SOL    HW219950   3.308   2.024   3.888
39315SOL     OW19951   1.807   9.871   7.071
39315SOL    HW119952   1.720   9.832   7.080
39315SOL    HW219953   1.827   9.906   7.158
39316SOL     OW19954   4.228   1.713   7.583
39316SOL    HW119955   4.251   1.620   7.586
39316SOL    HW219956   4.174   1.721   7.504
39317SOL     OW19957  10.664   9.154   1.482
39317SOL    HW119958  10.613   9.125   1.557
39317SOL    HW219959  10.727   9.216   1.518
39318SOL     OW19960  10.351   6.315   7.782
39318SOL    HW119961  10.409   6.264   7.725
39318SOL    HW219962  10.318   6.251   7.845
39319SOL     OW19963   5.567   6.769   8.632
39319SOL    HW119964   5.582   6.863   8.633
39319SOL    HW219965   5.606   6.737   8.713
39320SOL     OW19966  10.397   6.413  10.630
39320SOL    HW119967  10.396   6.507  10.646
39320SOL    HW219968  10.469   6.400  10.567
39321SOL     OW19969   7.077   3.290   8.652
39321SOL    HW119970   7.102   3.206   8.690
39321SOL    HW219971   7.010   3.268   8.587
39322SOL     OW19972   7.002   4.882   2.339
39322SOL    HW119973   7.054   4.923   2.408
39322SOL    HW219974   7.041   4.914   2.257
39323SOL     OW19975   0.471   5.295   3.302
39323SOL    HW119976   0.437   5.340   3.225
39323SOL    HW219977   0.491   5.206   3.271
39324SOL     OW19978   2.856  10.857   5.171
39324SOL    HW119979   2.885  10.933   5.120
39324SOL    HW219980   2.917  10.787   5.146
39325SOL     OW19981   5.476  10.025  10.655
39325SOL    HW119982   5.445   9.959  10.592
39325SOL    HW219983   5.397  10.062  10.693
39326SOL     OW19984   1.259   4.021   8.038
39326SOL    HW119985   1.310   4.039   7.958
39326SOL    HW219986   1.321   4.035   8.109
39327SOL     OW19987   2.401  10.383   0.288
39327SOL    HW119988   2.333  10.371   0.354
39327SOL    HW219989   2.483  10.364   0.333
39328SOL     OW19990   8.233   0.952   0.495
39328SOL    HW119991   8.244   0.910   0.409
39328SOL    HW219992   8.140   0.941   0.515
39329SOL     OW19993   9.218   6.036   6.539
39329SOL    HW119994   9.155   6.008   6.472
39329SOL    HW219995   9.290   6.074   6.489
39330SOL     OW19996   3.373  11.070   4.040
39330SOL    HW119997   3.452  11.016   4.033
39330SOL    HW219998   3.359  11.104   3.951
39331SOL     OW19999   2.215  10.357   3.698
39331SOL    HW120000   2.228  10.349   3.792
39331SOL    HW220001   2.304  10.360   3.662
39332SOL     OW20002  10.497   8.376   4.261
39332SOL    HW120003  10.467   8.439   4.195
39332SOL    HW220004  10.524   8.299   4.210
39333SOL     OW20005   0.042   0.775   7.931
39333SOL    HW120006  -0.016   0.699   7.937
39333SOL    HW220007   0.112   0.757   7.994
39334SOL     OW20008   6.794   3.655   8.662
39334SOL    HW120009   6.725   3.706   8.621
39334SOL    HW220010   6.750   3.607   8.732
39335SOL     OW20011   9.866   9.151   5.200
39335SOL    HW120012   9.877   9.122   5.109
39335SOL    HW220013   9.916   9.232   5.205
39336SOL     OW20014   0.894   0.771   8.579
39336SOL    HW120015   0.852   0.841   8.530
39336SOL    HW220016   0.940   0.815   8.650
39337SOL     OW20017   4.890   4.003   3.703
39337SOL    HW120018   4.973   4.036   3.738
39337SOL    HW220019   4.901   3.908   3.702
39338SOL     OW20020  11.056   3.838   9.379
39338SOL    HW120021  11.101   3.876   9.454
39338SOL    HW220022  11.105   3.757   9.361
39339SOL     OW20023   7.834   4.758   8.863
39339SOL    HW120024   7.756   4.702   8.865
39339SOL    HW220025   7.904   4.703   8.900
39340SOL     OW20026   2.627   2.839   4.396
39340SOL    HW120027   2.648   2.890   4.474
39340SOL    HW220028   2.601   2.753   4.429
39341SOL     OW20029   7.864   7.333   4.689
39341SOL    HW120030   7.934   7.380   4.643
39341SOL    HW220031   7.793   7.328   4.625
39342SOL     OW20032   5.392   4.583   3.292
39342SOL    HW120033   5.414   4.617   3.378
39342SOL    HW220034   5.307   4.540   3.304
39343SOL     OW20035   9.502   3.544   6.693
39343SOL    HW120036   9.411   3.562   6.715
39343SOL    HW220037   9.499   3.460   6.646
39344SOL     OW20038   7.756   2.083   8.109
39344SOL    HW120039   7.806   2.125   8.039
39344SOL    HW220040   7.694   2.026   8.063
39345SOL     OW20041   0.890   5.031   9.245
39345SOL    HW120042   0.939   5.106   9.212
39345SOL    HW220043   0.955   4.979   9.293
39346SOL     OW20044   5.048   9.152   7.240
39346SOL    HW120045   5.024   9.125   7.329
39346SOL    HW220046   5.079   9.071   7.198
39347SOL     OW20047   6.144   0.801   8.914
39347SOL    HW120048   6.057   0.785   8.877
39347SOL    HW220049   6.128   0.854   8.992
39348SOL     OW20050   2.071   8.732  10.828
39348SOL    HW120051   2.130   8.747  10.902
39348SOL    HW220052   2.095   8.799  10.764
39349SOL     OW20053   0.578   8.864   6.913
39349SOL    HW120054   0.487   8.880   6.889
39349SOL    HW220055   0.600   8.936   6.972
39350SOL     OW20056   8.866   4.740   6.337
39350SOL    HW120057   8.889   4.659   6.382
39350SOL    HW220058   8.787   4.770   6.381
39351SOL     OW20059   9.431   3.075   3.623
39351SOL    HW120060   9.344   3.036   3.617
39351SOL    HW220061   9.419   3.165   3.592
39352SOL     OW20062   8.172   8.205   3.914
39352SOL    HW120063   8.128   8.120   3.907
39352SOL    HW220064   8.191   8.215   4.007
39353SOL     OW20065   9.000   3.899   5.798
39353SOL    HW120066   9.024   3.807   5.785
39353SOL    HW220067   8.914   3.908   5.756
39354SOL     OW20068   6.465   7.650   6.930
39354SOL    HW120069   6.436   7.663   6.839
39354SOL    HW220070   6.411   7.578   6.962
39355SOL     OW20071   2.784   3.844   0.449
39355SOL    HW120072   2.795   3.913   0.384
39355SOL    HW220073   2.864   3.847   0.501
39356SOL     OW20074   9.625   0.034   3.767
39356SOL    HW120075   9.689   0.075   3.709
39356SOL    HW220076   9.543   0.039   3.719
39357SOL     OW20077   0.066   1.450   7.231
39357SOL    HW120078   0.040   1.357   7.232
39357SOL    HW220079   0.156   1.449   7.199
39358SOL     OW20080   6.738   3.907   5.912
39358SOL    HW120081   6.688   3.834   5.876
39358SOL    HW220082   6.830   3.883   5.897
39359SOL     OW20083   1.327   8.363   1.574
39359SOL    HW120084   1.251   8.364   1.632
39359SOL    HW220085   1.394   8.413   1.621
39360SOL     OW20086   6.415   3.764   9.196
39360SOL    HW120087   6.402   3.848   9.239
39360SOL    HW220088   6.373   3.700   9.254
39361SOL     OW20089   0.813   5.462   5.275
39361SOL    HW120090   0.728   5.506   5.275
39361SOL    HW220091   0.850   5.481   5.189
39362SOL     OW20092   6.522   3.621   2.871
39362SOL    HW120093   6.604   3.588   2.833
39362SOL    HW220094   6.461   3.547   2.865
39363SOL     OW20095   2.376   3.081   1.452
39363SOL    HW120096   2.338   3.163   1.482
39363SOL    HW220097   2.397   3.096   1.360
39364SOL     OW20098  11.045   8.840   5.696
39364SOL    HW120099  11.091   8.842   5.612
39364SOL    HW220100  10.979   8.909   5.689
39365SOL     OW20101   4.162   3.227   4.082
39365SOL    HW120102   4.208   3.224   3.998
39365SOL    HW220103   4.155   3.135   4.108
39366SOL     OW20104  10.498   5.330   4.347
39366SOL    HW120105  10.550   5.376   4.413
39366SOL    HW220106  10.412   5.320   4.387
39367SOL     OW20107   4.748   7.284   5.962
39367SOL    HW120108   4.714   7.372   5.975
39367SOL    HW220109   4.832   7.297   5.917
39368SOL     OW20110   3.070   3.184   0.857
39368SOL    HW120111   3.121   3.258   0.825
39368SOL    HW220112   3.116   3.107   0.823
39369SOL     OW20113  10.702  10.939   1.071
39369SOL    HW120114  10.628  10.879   1.064
39369SOL    HW220115  10.715  10.971   0.981
39370SOL     OW20116   0.954   0.823   7.485
39370SOL    HW120117   0.912   0.737   7.478
39370SOL    HW220118   1.023   0.811   7.550
39371SOL     OW20119   7.945   5.403   1.772
39371SOL    HW120120   7.981   5.478   1.726
39371SOL    HW220121   7.908   5.348   1.703
39372SOL     OW20122   5.036   5.979   8.203
39372SOL    HW120123   4.986   6.010   8.278
39372SOL    HW220124   4.975   5.922   8.156
39373SOL     OW20125   5.876   7.920   3.787
39373SOL    HW120126   5.855   8.013   3.777
39373SOL    HW220127   5.931   7.916   3.865
39374SOL     OW20128   9.098  10.852   0.606
39374SOL    HW120129   9.145  10.782   0.651
39374SOL    HW220130   9.032  10.881   0.668
39375SOL     OW20131  10.716   7.813   6.846
39375SOL    HW120132  10.727   7.869   6.769
39375SOL    HW220133  10.802   7.815   6.889
39376SOL     OW20134   0.355   2.053   7.789
39376SOL    HW120135   0.371   1.981   7.727
39376SOL    HW220136   0.338   2.009   7.872
39377SOL     OW20137   1.945   7.643   3.542
39377SOL    HW120138   1.880   7.711   3.526
39377SOL    HW220139   1.924   7.609   3.629
39378SOL     OW20140   7.442   5.196   7.263
39378SOL    HW120141   7.361   5.223   7.306
39378SOL    HW220142   7.492   5.276   7.251
39379SOL     OW20143  10.901   4.161   3.928
39379SOL    HW120144  10.953   4.239   3.908
39379SOL    HW220145  10.831   4.192   3.985
39380SOL     OW20146   6.415   2.582   6.352
39380SOL    HW120147   6.471   2.545   6.283
39380SOL    HW220148   6.432   2.676   6.349
39381SOL     OW20149   3.060   5.696   5.677
39381SOL    HW120150   3.061   5.766   5.612
39381SOL    HW220151   3.152   5.669   5.685
39382SOL     OW20152   7.108   6.662   8.587
39382SOL    HW120153   7.183   6.637   8.532
39382SOL    HW220154   7.064   6.731   8.537
39383SOL     OW20155   5.695   1.924   7.696
39383SOL    HW120156   5.685   1.830   7.682
39383SOL    HW220157   5.616   1.950   7.742
39384SOL     OW20158   9.844   1.482   0.001
39384SOL    HW120159   9.752   1.483   0.028
39384SOL    HW220160   9.891   1.451   0.079
39385SOL     OW20161   2.591   5.657  10.505
39385SOL    HW120162   2.500   5.657  10.474
39385SOL    HW220163   2.612   5.749  10.519
39386SOL     OW20164   9.874   3.053   6.849
39386SOL    HW120165   9.957   3.005   6.851
39386SOL    HW220166   9.809   2.989   6.879
39387SOL     OW20167   7.880   6.829  10.086
39387SOL    HW120168   7.884   6.831  10.181
39387SOL    HW220169   7.972   6.835  10.058
39388SOL     OW20170   3.750  10.565   2.488
39388SOL    HW120171   3.806  10.489   2.472
39388SOL    HW220172   3.795  10.614   2.557
39389SOL     OW20173   8.993   6.025   3.012
39389SOL    HW120174   8.927   6.074   3.059
39389SOL    HW220175   9.074   6.075   3.024
39390SOL     OW20176   7.901   9.960   9.795
39390SOL    HW120177   7.904  10.055   9.799
39390SOL    HW220178   7.808   9.939   9.794
39391SOL     OW20179   2.066   9.331   0.997
39391SOL    HW120180   1.985   9.349   1.044
39391SOL    HW220181   2.130   9.311   1.065
39392SOL     OW20182   9.901   6.066   9.587
39392SOL    HW120183   9.995   6.079   9.600
39392SOL    HW220184   9.870   6.031   9.670
39393SOL     OW20185   0.215   0.272   2.170
39393SOL    HW120186   0.230   0.217   2.092
39393SOL    HW220187   0.176   0.352   2.135
39394SOL     OW20188   3.065   4.581   6.247
39394SOL    HW120189   2.996   4.533   6.293
39394SOL    HW220190   3.044   4.673   6.260
39395SOL     OW20191   5.938   0.245   8.378
39395SOL    HW120192   5.943   0.273   8.469
39395SOL    HW220193   5.860   0.288   8.343
39396SOL     OW20194   2.799   6.184   5.164
39396SOL    HW120195   2.880   6.234   5.168
39396SOL    HW220196   2.824   6.101   5.123
39397SOL     OW20197   6.875   1.014   4.452
39397SOL    HW120198   6.797   1.038   4.502
39397SOL    HW220199   6.859   0.923   4.425
39398SOL     OW20200   5.286   2.344   6.426
39398SOL    HW120201   5.350   2.272   6.422
39398SOL    HW220202   5.324   2.412   6.370
39399SOL     OW20203   0.622   1.998  10.053
39399SOL    HW120204   0.593   1.922  10.104
39399SOL    HW220205   0.717   1.997  10.061
39400SOL     OW20206  10.114  10.288   2.538
39400SOL    HW120207  10.131  10.378   2.565
39400SOL    HW220208  10.101  10.240   2.620
39401SOL     OW20209  10.071   5.375   4.320
39401SOL    HW120210  10.065   5.279   4.316
39401SOL    HW220211  10.118   5.399   4.240
39402SOL     OW20212   2.116   5.324   5.340
39402SOL    HW120213   2.177   5.304   5.268
39402SOL    HW220214   2.167   5.308   5.419
39403SOL     OW20215   0.677   7.111   8.968
39403SOL    HW120216   0.588   7.077   8.968
39403SOL    HW220217   0.698   7.125   9.060
39404SOL     OW20218   3.594   8.656  10.638
39404SOL    HW120219   3.573   8.562  10.640
39404SOL    HW220220   3.586   8.679  10.545
39405SOL     OW20221   9.978   2.670   4.055
39405SOL    HW120222  10.049   2.607   4.038
39405SOL    HW220223   9.985   2.733   3.983
39406SOL     OW20224   5.563   6.892   7.097
39406SOL    HW120225   5.553   6.970   7.043
39406SOL    HW220226   5.490   6.836   7.071
39407SOL     OW20227   6.526   3.431   3.195
39407SOL    HW120228   6.431   3.439   3.196
39407SOL    HW220229   6.545   3.356   3.252
39408SOL     OW20230   2.270  10.073   2.124
39408SOL    HW120231   2.251  10.135   2.194
39408SOL    HW220232   2.366  10.071   2.118
39409SOL     OW20233   1.342   9.471   5.509
39409SOL    HW120234   1.400   9.488   5.583
39409SOL    HW220235   1.265   9.429   5.548
39410SOL     OW20236   2.712   2.984   9.520
39410SOL    HW120237   2.689   3.075   9.504
39410SOL    HW220238   2.711   2.944   9.433
39411SOL     OW20239   8.944   4.071   8.356
39411SOL    HW120240   8.919   4.156   8.391
39411SOL    HW220241   8.888   4.059   8.279
39412SOL     OW20242   3.911  10.037   6.177
39412SOL    HW120243   3.901  10.125   6.213
39412SOL    HW220244   3.918  10.050   6.082
39413SOL     OW20245   0.372   6.874   8.166
39413SOL    HW120246   0.413   6.957   8.190
39413SOL    HW220247   0.384   6.818   8.243
39414SOL     OW20248   6.068   3.042   0.593
39414SOL    HW120249   6.123   3.119   0.583
39414SOL    HW220250   6.037   3.046   0.683
39415SOL     OW20251  10.887   2.276   1.623
39415SOL    HW120252  10.823   2.308   1.686
39415SOL    HW220253  10.878   2.180   1.626
39416SOL     OW20254   0.630   0.151   9.733
39416SOL    HW120255   0.679   0.127   9.812
39416SOL    HW220256   0.610   0.067   9.691
39417SOL     OW20257   8.254   3.061   6.801
39417SOL    HW120258   8.231   3.115   6.725
39417SOL    HW220259   8.194   3.089   6.870
39418SOL     OW20260   1.003   1.739   9.034
39418SOL    HW120261   1.054   1.794   9.093
39418SOL    HW220262   0.933   1.796   9.002
39419SOL     OW20263   9.339   1.654  10.942
39419SOL    HW120264   9.293   1.684  11.020
39419SOL    HW220265   9.370   1.734  10.900
39420SOL     OW20266   5.927   0.080   6.199
39420SOL    HW120267   5.865   0.025   6.150
39420SOL    HW220268   5.886   0.166   6.202
39421SOL     OW20269  10.874   5.741   6.203
39421SOL    HW120270  10.879   5.680   6.129
39421SOL    HW220271  10.834   5.690   6.273
39422SOL     OW20272  10.808   1.705   8.069
39422SOL    HW120273  10.894   1.722   8.030
39422SOL    HW220274  10.827   1.683   8.160
39423SOL     OW20275  10.210   3.266   8.582
39423SOL    HW120276  10.235   3.197   8.644
39423SOL    HW220277  10.115   3.257   8.573
39424SOL     OW20278   0.358   5.283   5.560
39424SOL    HW120279   0.373   5.314   5.470
39424SOL    HW220280   0.275   5.323   5.585
39425SOL     OW20281   6.682   6.299   0.741
39425SOL    HW120282   6.761   6.344   0.711
39425SOL    HW220283   6.631   6.285   0.661
39426SOL     OW20284   7.786  11.022   3.379
39426SOL    HW120285   7.822  10.976   3.455
39426SOL    HW220286   7.858  11.076   3.347
39427SOL     OW20287   2.019   2.967   8.983
39427SOL    HW120288   2.011   2.874   8.959
39427SOL    HW220289   2.110   2.988   8.963
39428SOL     OW20290   7.327   9.069   5.072
39428SOL    HW120291   7.291   9.039   4.988
39428SOL    HW220292   7.330   9.164   5.064
39429SOL     OW20293   8.283   7.056  10.731
39429SOL    HW120294   8.333   7.074  10.651
39429SOL    HW220295   8.349   7.025  10.793
39430SOL     OW20296   9.391   3.414   8.824
39430SOL    HW120297   9.373   3.388   8.733
39430SOL    HW220298   9.312   3.461   8.852
39431SOL     OW20299  10.435   5.221  10.704
39431SOL    HW120300  10.364   5.270  10.663
39431SOL    HW220301  10.394   5.172  10.775
39432SOL     OW20302   8.345   3.071   3.937
39432SOL    HW120303   8.436   3.059   3.909
39432SOL    HW220304   8.320   3.156   3.901
39433SOL     OW20305   5.868   7.157   4.657
39433SOL    HW120306   5.855   7.095   4.585
39433SOL    HW220307   5.789   7.211   4.656
39434SOL     OW20308   7.871   4.592   5.215
39434SOL    HW120309   7.878   4.576   5.121
39434SOL    HW220310   7.784   4.560   5.238
39435SOL     OW20311  10.730   2.801   5.911
39435SOL    HW120312  10.776   2.718   5.896
39435SOL    HW220313  10.637   2.778   5.903
39436SOL     OW20314   3.880   4.167   2.777
39436SOL    HW120315   3.820   4.241   2.768
39436SOL    HW220316   3.944   4.195   2.842
39437SOL     OW20317   2.609   2.185  11.092
39437SOL    HW120318   2.622   2.107  11.146
39437SOL    HW220319   2.696   2.226  11.088
39438SOL     OW20320   2.009   3.981   2.934
39438SOL    HW120321   1.945   4.005   3.000
39438SOL    HW220322   2.080   4.044   2.944
39439SOL     OW20323   1.349  10.487  10.799
39439SOL    HW120324   1.358  10.468  10.892
39439SOL    HW220325   1.432  10.459  10.761
39440SOL     OW20326   4.755   0.587   6.872
39440SOL    HW120327   4.670   0.567   6.833
39440SOL    HW220328   4.735   0.619   6.960
39441SOL     OW20329   9.810   9.398   6.758
39441SOL    HW120330   9.754   9.463   6.799
39441SOL    HW220331   9.887   9.447   6.729
39442SOL     OW20332   8.414   2.413   8.417
39442SOL    HW120333   8.421   2.322   8.388
39442SOL    HW220334   8.503   2.448   8.406
39443SOL     OW20335   7.165   9.434   1.425
39443SOL    HW120336   7.253   9.462   1.451
39443SOL    HW220337   7.133   9.383   1.499
39444SOL     OW20338   6.244   7.205   2.771
39444SOL    HW120339   6.323   7.233   2.724
39444SOL    HW220340   6.173   7.255   2.731
39445SOL     OW20341   9.521   2.462   3.127
39445SOL    HW120342   9.452   2.501   3.074
39445SOL    HW220343   9.577   2.417   3.063
39446SOL     OW20344   0.828   4.146   9.000
39446SOL    HW120345   0.864   4.234   8.992
39446SOL    HW220346   0.904   4.092   9.023
39447SOL     OW20347   4.545   5.179   4.000
39447SOL    HW120348   4.510   5.239   4.065
39447SOL    HW220349   4.611   5.128   4.047
39448SOL     OW20350   8.583   4.652   5.390
39448SOL    HW120351   8.654   4.619   5.335
39448SOL    HW220352   8.621   4.659   5.477
39449SOL     OW20353   9.876   4.217   5.648
39449SOL    HW120354   9.854   4.309   5.662
39449SOL    HW220355   9.812   4.186   5.583
39450SOL     OW20356   4.458   3.710   4.438
39450SOL    HW120357   4.400   3.775   4.478
39450SOL    HW220358   4.546   3.743   4.455
39451SOL     OW20359   7.350   6.307   8.885
39451SOL    HW120360   7.317   6.396   8.875
39451SOL    HW220361   7.279   6.251   8.853
39452SOL     OW20362   8.195   6.152   2.071
39452SOL    HW120363   8.280   6.123   2.103
39452SOL    HW220364   8.138   6.149   2.148
39453SOL     OW20365   7.865   1.955  10.099
39453SOL    HW120366   7.884   1.926  10.009
39453SOL    HW220367   7.934   1.916  10.152
39454SOL     OW20368   7.114   1.995   6.062
39454SOL    HW120369   7.104   2.006   6.156
39454SOL    HW220370   7.208   1.984   6.049
39455SOL     OW20371  10.840   7.484   7.249
39455SOL    HW120372  10.811   7.571   7.221
39455SOL    HW220373  10.837   7.487   7.344
39456SOL     OW20374   8.911   4.927   1.361
39456SOL    HW120375   8.958   4.873   1.424
39456SOL    HW220376   8.832   4.954   1.406
39457SOL     OW20377  10.731   8.769   1.329
39457SOL    HW120378  10.662   8.835   1.334
39457SOL    HW220379  10.781   8.793   1.251
39458SOL     OW20380   3.464   3.794   7.577
39458SOL    HW120381   3.430   3.858   7.514
39458SOL    HW220382   3.534   3.840   7.623
39459SOL     OW20383   7.286   3.727   0.179
39459SOL    HW120384   7.203   3.774   0.182
39459SOL    HW220385   7.297   3.692   0.268
39460SOL     OW20386   7.224   6.933   8.693
39460SOL    HW120387   7.220   6.976   8.607
39460SOL    HW220388   7.276   6.853   8.677
39461SOL     OW20389   8.921   1.877  11.008
39461SOL    HW120390   8.984   1.866  10.936
39461SOL    HW220391   8.859   1.805  10.996
39462SOL     OW20392   8.973   2.700   7.070
39462SOL    HW120393   9.031   2.715   7.144
39462SOL    HW220394   8.919   2.779   7.065
39463SOL     OW20395   8.119   3.848   7.638
39463SOL    HW120396   8.184   3.881   7.576
39463SOL    HW220397   8.160   3.858   7.724
39464SOL     OW20398   4.527   5.765  10.500
39464SOL    HW120399   4.569   5.789  10.582
39464SOL    HW220400   4.539   5.841  10.443
39465SOL     OW20401   4.933  10.981   0.137
39465SOL    HW120402   4.970  11.041   0.072
39465SOL    HW220403   4.884  11.038   0.197
39466SOL     OW20404   4.766   5.312   3.543
39466SOL    HW120405   4.844   5.290   3.491
39466SOL    HW220406   4.695   5.314   3.479
39467SOL     OW20407   6.646   9.506   9.532
39467SOL    HW120408   6.573   9.495   9.471
39467SOL    HW220409   6.612   9.562   9.601
39468SOL     OW20410   0.298   3.258  11.030
39468SOL    HW120411   0.261   3.346  11.028
39468SOL    HW220412   0.371   3.261  10.968
39469SOL     OW20413   2.467   3.164   7.572
39469SOL    HW120414   2.557   3.195   7.561
39469SOL    HW220415   2.473   3.095   7.638
39470SOL     OW20416   8.589   5.655   8.348
39470SOL    HW120417   8.624   5.592   8.285
39470SOL    HW220418   8.566   5.731   8.295
39471SOL     OW20419   4.691  10.632   6.769
39471SOL    HW120420   4.650  10.674   6.844
39471SOL    HW220421   4.670  10.539   6.779
39472SOL     OW20422   1.438   5.433   5.006
39472SOL    HW120423   1.363   5.476   4.964
39472SOL    HW220424   1.447   5.350   4.958
39473SOL     OW20425  10.307   1.777   3.741
39473SOL    HW120426  10.233   1.806   3.793
39473SOL    HW220427  10.320   1.846   3.676
39474SOL     OW20428   4.742   0.470   0.854
39474SOL    HW120429   4.655   0.460   0.815
39474SOL    HW220430   4.739   0.553   0.901
39475SOL     OW20431   7.537   4.472   9.155
39475SOL    HW120432   7.442   4.475   9.165
39475SOL    HW220433   7.566   4.407   9.219
39476SOL     OW20434   0.339   0.157   6.794
39476SOL    HW120435   0.320   0.120   6.880
39476SOL    HW220436   0.287   0.237   6.790
39477SOL     OW20437   6.498  10.150   6.679
39477SOL    HW120438   6.516  10.229   6.730
39477SOL    HW220439   6.550  10.081   6.721
39478SOL     OW20440   2.527   5.304  11.093
39478SOL    HW120441   2.540   5.325  11.185
39478SOL    HW220442   2.555   5.382  11.045
39479SOL     OW20443   9.643   2.661   7.850
39479SOL    HW120444   9.640   2.749   7.814
39479SOL    HW220445   9.720   2.621   7.809
39480SOL     OW20446   2.137  10.993   5.816
39480SOL    HW120447   2.157  11.053   5.888
39480SOL    HW220448   2.065  11.035   5.769
39481SOL     OW20449  10.511   6.547   4.983
39481SOL    HW120450  10.499   6.486   4.909
39481SOL    HW220451  10.443   6.613   4.971
39482SOL     OW20452   3.600   2.575   7.354
39482SOL    HW120453   3.553   2.508   7.304
39482SOL    HW220454   3.668   2.526   7.400
39483SOL     OW20455   7.539   4.108   0.216
39483SOL    HW120456   7.529   4.124   0.309
39483SOL    HW220457   7.607   4.169   0.188
39484SOL     OW20458   7.740   1.071  10.986
39484SOL    HW120459   7.820   1.077  10.934
39484SOL    HW220460   7.763   1.015  11.060
39485SOL     OW20461   2.775   4.606   2.599
39485SOL    HW120462   2.825   4.658   2.536
39485SOL    HW220463   2.826   4.526   2.610
39486SOL     OW20464  10.837   3.211   5.529
39486SOL    HW120465  10.897   3.285   5.533
39486SOL    HW220466  10.827   3.183   5.620
39487SOL     OW20467   0.103   6.605   0.502
39487SOL    HW120468   0.020   6.642   0.533
39487SOL    HW220469   0.158   6.601   0.580
39488SOL     OW20470   9.957   3.083   7.930
39488SOL    HW120471  10.006   3.156   7.893
39488SOL    HW220472   9.875   3.122   7.959
39489SOL     OW20473   4.090   3.841   0.798
39489SOL    HW120474   3.994   3.844   0.801
39489SOL    HW220475   4.118   3.882   0.880
39490SOL     OW20476  10.775   4.749   9.373
39490SOL    HW120477  10.798   4.763   9.281
39490SOL    HW220478  10.851   4.780   9.421
39491SOL     OW20479  10.624   5.541   0.996
39491SOL    HW120480  10.714   5.528   0.964
39491SOL    HW220481  10.571   5.547   0.916
39492SOL     OW20482   3.183   1.590   8.166
39492SOL    HW120483   3.146   1.596   8.078
39492SOL    HW220484   3.155   1.670   8.209
39493SOL     OW20485   4.777   9.716   7.307
39493SOL    HW120486   4.844   9.702   7.240
39493SOL    HW220487   4.756   9.628   7.338
39494SOL     OW20488   7.780   9.299   9.108
39494SOL    HW120489   7.708   9.307   9.170
39494SOL    HW220490   7.781   9.383   9.062
39495SOL     OW20491   1.237   1.317   3.732
39495SOL    HW120492   1.250   1.241   3.674
39495SOL    HW220493   1.278   1.389   3.685
39496SOL     OW20494   7.929   6.518   4.454
39496SOL    HW120495   7.870   6.585   4.488
39496SOL    HW220496   7.988   6.565   4.395
39497SOL     OW20497   1.360  10.212   6.388
39497SOL    HW120498   1.275  10.172   6.405
39497SOL    HW220499   1.403  10.152   6.327
39498SOL     OW20500   4.038   3.457   2.120
39498SOL    HW120501   4.104   3.490   2.058
39498SOL    HW220502   4.089   3.413   2.188
39499SOL     OW20503   8.821   3.965   8.597
39499SOL    HW120504   8.835   3.960   8.502
39499SOL    HW220505   8.892   4.021   8.629
39500SOL     OW20506   8.616   8.113   9.976
39500SOL    HW120507   8.594   8.071   9.893
39500SOL    HW220508   8.538   8.163   9.999
39501SOL     OW20509   2.456   6.633   5.975
39501SOL    HW120510   2.531   6.617   5.917
39501SOL    HW220511   2.399   6.557   5.962
39502SOL     OW20512   0.663   3.712   8.096
39502SOL    HW120513   0.716   3.771   8.042
39502SOL    HW220514   0.705   3.626   8.087
39503SOL     OW20515   5.904   1.173   4.539
39503SOL    HW120516   5.992   1.150   4.569
39503SOL    HW220517   5.887   1.259   4.577
39504SOL     OW20518  10.028   4.277   0.028
39504SOL    HW120519   9.935   4.277   0.007
39504SOL    HW220520  10.053   4.369   0.030
39505SOL     OW20521   5.158   8.865   2.610
39505SOL    HW120522   5.082   8.910   2.573
39505SOL    HW220523   5.213   8.845   2.534
39506SOL     OW20524  10.693   7.615   1.142
39506SOL    HW120525  10.648   7.531   1.152
39506SOL    HW220526  10.646   7.659   1.071
39507SOL     OW20527   1.892   0.765   3.744
39507SOL    HW120528   1.855   0.785   3.658
39507SOL    HW220529   1.875   0.843   3.796
39508SOL     OW20530   6.852   9.539   8.114
39508SOL    HW120531   6.939   9.499   8.111
39508SOL    HW220532   6.817   9.514   8.199
39509SOL     OW20533   0.065   8.059   6.178
39509SOL    HW120534   0.125   8.070   6.104
39509SOL    HW220535   0.116   8.083   6.254
39510SOL     OW20536   8.534   5.819   6.069
39510SOL    HW120537   8.546   5.762   5.992
39510SOL    HW220538   8.582   5.775   6.139
39511SOL     OW20539   8.631   3.597   7.522
39511SOL    HW120540   8.680   3.540   7.582
39511SOL    HW220541   8.574   3.649   7.578
39512SOL     OW20542   6.036   3.067   6.401
39512SOL    HW120543   6.002   3.122   6.471
39512SOL    HW220544   6.038   3.123   6.324
39513SOL     OW20545  10.005   9.274   9.889
39513SOL    HW120546  10.000   9.369   9.901
39513SOL    HW220547  10.073   9.262   9.823
39514SOL     OW20548   1.041   3.667   4.222
39514SOL    HW120549   1.074   3.577   4.230
39514SOL    HW220550   0.946   3.658   4.233
39515SOL     OW20551   7.190   3.554   7.137
39515SOL    HW120552   7.253   3.622   7.114
39515SOL    HW220553   7.143   3.589   7.212
39516SOL     OW20554   1.255   7.557   5.274
39516SOL    HW120555   1.165   7.578   5.297
39516SOL    HW220556   1.297   7.642   5.260
39517SOL     OW20557   3.784   8.630  11.076
39517SOL    HW120558   3.856   8.567  11.068
39517SOL    HW220559   3.817   8.696  11.136
39518SOL     OW20560   1.226   9.108   9.241
39518SOL    HW120561   1.156   9.158   9.200
39518SOL    HW220562   1.191   9.083   9.326
39519SOL     OW20563   0.191   4.633   9.272
39519SOL    HW120564   0.259   4.580   9.314
39519SOL    HW220565   0.228   4.656   9.186
39520SOL     OW20566   8.240   0.130   6.580
39520SOL    HW120567   8.316   0.166   6.626
39520SOL    HW220568   8.232   0.183   6.501
39521SOL     OW20569   1.969  10.313   6.323
39521SOL    HW120570   2.024  10.389   6.341
39521SOL    HW220571   1.967  10.264   6.405
39522SOL     OW20572   7.471   4.430   1.231
39522SOL    HW120573   7.443   4.461   1.317
39522SOL    HW220574   7.561   4.462   1.222
39523SOL     OW20575   6.772   3.019   7.725
39523SOL    HW120576   6.691   3.006   7.773
39523SOL    HW220577   6.798   3.109   7.745
39524SOL     OW20578   8.605   9.157   9.849
39524SOL    HW120579   8.576   9.075   9.808
39524SOL    HW220580   8.662   9.198   9.783
39525SOL     OW20581   7.120   2.607   7.901
39525SOL    HW120582   7.044   2.636   7.851
39525SOL    HW220583   7.177   2.684   7.905
39526SOL     OW20584   4.079   1.541   2.450
39526SOL    HW120585   4.101   1.565   2.359
39526SOL    HW220586   3.984   1.537   2.451
39527SOL     OW20587   4.938   6.496   0.871
39527SOL    HW120588   5.014   6.470   0.922
39527SOL    HW220589   4.891   6.558   0.927
39528SOL     OW20590   2.824   2.366   9.343
39528SOL    HW120591   2.824   2.412   9.259
39528SOL    HW220592   2.914   2.335   9.353
39529SOL     OW20593   2.180   3.830   4.419
39529SOL    HW120594   2.144   3.741   4.415
39529SOL    HW220595   2.116   3.884   4.373
39530SOL     OW20596   6.443   4.832  10.366
39530SOL    HW120597   6.537   4.835  10.345
39530SOL    HW220598   6.430   4.904  10.426
39531SOL     OW20599   7.354   5.155   7.870
39531SOL    HW120600   7.416   5.109   7.813
39531SOL    HW220601   7.398   5.159   7.955
39532SOL     OW20602   9.631   5.268   9.958
39532SOL    HW120603   9.710   5.315   9.984
39532SOL    HW220604   9.629   5.191  10.015
39533SOL     OW20605  10.579   1.302   6.575
39533SOL    HW120606  10.591   1.376   6.634
39533SOL    HW220607  10.497   1.321   6.529
39534SOL     OW20608   6.161  10.671   6.400
39534SOL    HW120609   6.143  10.591   6.449
39534SOL    HW220610   6.223  10.719   6.454
39535SOL     OW20611   5.492   8.509   7.583
39535SOL    HW120612   5.540   8.459   7.649
39535SOL    HW220613   5.523   8.474   7.499
39536SOL     OW20614   8.422   0.341   4.091
39536SOL    HW120615   8.513   0.312   4.087
39536SOL    HW220616   8.387   0.324   4.003
39537SOL     OW20617   9.662   6.249   8.717
39537SOL    HW120618   9.573   6.252   8.681
39537SOL    HW220619   9.664   6.317   8.783
39538SOL     OW20620   7.462   6.744   9.858
39538SOL    HW120621   7.540   6.794   9.883
39538SOL    HW220622   7.389   6.795   9.892
39539SOL     OW20623   2.580   0.201   7.366
39539SOL    HW120624   2.521   0.276   7.357
39539SOL    HW220625   2.554   0.159   7.448
39540SOL     OW20626   2.125   3.590  10.847
39540SOL    HW120627   2.151   3.673  10.887
39540SOL    HW220628   2.201   3.564  10.795
39541SOL     OW20629   7.503   7.870   7.147
39541SOL    HW120630   7.547   7.821   7.077
39541SOL    HW220631   7.428   7.911   7.104
39542SOL     OW20632   2.356   2.522   3.278
39542SOL    HW120633   2.263   2.506   3.290
39542SOL    HW220634   2.380   2.582   3.348
39543SOL     OW20635   9.372   5.295   0.391
39543SOL    HW120636   9.302   5.307   0.327
39543SOL    HW220637   9.408   5.382   0.404
39544SOL     OW20638   7.163   9.233   4.717
39544SOL    HW120639   7.102   9.292   4.673
39544SOL    HW220640   7.108   9.160   4.746
39545SOL     OW20641   0.466   0.270   3.985
39545SOL    HW120642   0.411   0.338   4.022
39545SOL    HW220643   0.414   0.234   3.913
39546SOL     OW20644  10.961   3.441   9.577
39546SOL    HW120645  10.969   3.503   9.649
39546SOL    HW220646  10.870   3.446   9.549
39547SOL     OW20647   9.394   4.194   3.923
39547SOL    HW120648   9.474   4.158   3.884
39547SOL    HW220649   9.392   4.158   4.011
39548SOL     OW20650   8.136   6.290   4.071
39548SOL    HW120651   8.144   6.227   4.142
39548SOL    HW220652   8.045   6.282   4.042
39549SOL     OW20653   1.760   9.545   0.754
39549SOL    HW120654   1.688   9.603   0.776
39549SOL    HW220655   1.779   9.498   0.835
39550SOL     OW20656  10.336   3.524   6.963
39550SOL    HW120657  10.303   3.435   6.945
39550SOL    HW220658  10.408   3.535   6.901
39551SOL     OW20659   8.387   2.157   8.328
39551SOL    HW120660   8.405   2.071   8.365
39551SOL    HW220661   8.409   2.147   8.235
39552SOL     OW20662   0.543   2.010   7.151
39552SOL    HW120663   0.582   1.946   7.211
39552SOL    HW220664   0.551   1.969   7.064
39553SOL     OW20665   1.733   9.280   7.659
39553SOL    HW120666   1.718   9.372   7.638
39553SOL    HW220667   1.826   9.265   7.638
39554SOL     OW20668   5.327   5.972   0.800
39554SOL    HW120669   5.257   6.017   0.753
39554SOL    HW220670   5.309   5.879   0.785
39555SOL     OW20671   0.950   5.093  10.908
39555SOL    HW120672   1.023   5.094  10.846
39555SOL    HW220673   0.965   5.015  10.961
39556SOL     OW20674   7.230   6.205  10.343
39556SOL    HW120675   7.136   6.219  10.338
39556SOL    HW220676   7.268   6.292  10.332
39557SOL     OW20677   7.861   4.614   9.325
39557SOL    HW120678   7.923   4.625   9.397
39557SOL    HW220679   7.775   4.609   9.367
39558SOL     OW20680   9.303   7.946   0.596
39558SOL    HW120681   9.264   7.859   0.599
39558SOL    HW220682   9.234   8.002   0.563
39559SOL     OW20683   2.473   1.848   6.123
39559SOL    HW120684   2.496   1.853   6.216
39559SOL    HW220685   2.518   1.922   6.083
39560SOL     OW20686   0.996   5.542   7.198
39560SOL    HW120687   1.049   5.463   7.185
39560SOL    HW220688   1.015   5.596   7.121
39561SOL     OW20689   5.754   7.231   9.379
39561SOL    HW120690   5.749   7.315   9.333
39561SOL    HW220691   5.711   7.247   9.463
39562SOL     OW20692   3.415  10.325   5.131
39562SOL    HW120693   3.462  10.245   5.105
39562SOL    HW220694   3.424  10.383   5.055
39563SOL     OW20695   1.419   2.570   8.370
39563SOL    HW120696   1.495   2.620   8.340
39563SOL    HW220697   1.383   2.621   8.442
39564SOL     OW20698  10.416   2.693   9.568
39564SOL    HW120699  10.344   2.696   9.504
39564SOL    HW220700  10.453   2.781   9.567
39565SOL     OW20701   7.654   3.146   0.791
39565SOL    HW120702   7.560   3.132   0.780
39565SOL    HW220703   7.693   3.061   0.771
39566SOL     OW20704   5.049   6.534   4.441
39566SOL    HW120705   5.048   6.467   4.510
39566SOL    HW220706   4.961   6.532   4.405
39567SOL     OW20707   7.495   2.081   9.942
39567SOL    HW120708   7.579   2.117   9.970
39567SOL    HW220709   7.444   2.073  10.022
39568SOL     OW20710   1.924   3.089  10.431
39568SOL    HW120711   1.848   3.093  10.489
39568SOL    HW220712   1.915   3.005  10.386
39569SOL     OW20713   3.130   7.326   8.777
39569SOL    HW120714   3.088   7.338   8.862
39569SOL    HW220715   3.160   7.235   8.778
39570SOL     OW20716   7.423   0.051   1.645
39570SOL    HW120717   7.380  -0.011   1.585
39570SOL    HW220718   7.354   0.110   1.672
39571SOL     OW20719   0.412   8.850   9.677
39571SOL    HW120720   0.329   8.813   9.646
39571SOL    HW220721   0.477   8.817   9.615
39572SOL     OW20722  10.415  10.459   9.986
39572SOL    HW120723  10.335  10.418   9.953
39572SOL    HW220724  10.385  10.539  10.029
39573SOL     OW20725   7.871   2.437   3.555
39573SOL    HW120726   7.923   2.398   3.625
39573SOL    HW220727   7.913   2.406   3.474
39574SOL     OW20728   1.584   2.920   5.733
39574SOL    HW120729   1.652   2.858   5.758
39574SOL    HW220730   1.581   2.914   5.637
39575SOL     OW20731   8.298   7.656   7.495
39575SOL    HW120732   8.298   7.740   7.541
39575SOL    HW220733   8.380   7.656   7.445
39576SOL     OW20734  10.645   3.001   9.254
39576SOL    HW120735  10.588   2.995   9.177
39576SOL    HW220736  10.718   2.942   9.234
39577SOL     OW20737   1.461  10.882  10.606
39577SOL    HW120738   1.522  10.952  10.584
39577SOL    HW220739   1.513  10.802  10.601
39578SOL     OW20740  10.095   8.270   3.703
39578SOL    HW120741  10.096   8.298   3.611
39578SOL    HW220742  10.183   8.234   3.717
39579SOL     OW20743   1.214   4.227   7.483
39579SOL    HW120744   1.225   4.162   7.552
39579SOL    HW220745   1.132   4.271   7.504
39580SOL     OW20746   4.444   3.721   7.647
39580SOL    HW120747   4.368   3.775   7.625
39580SOL    HW220748   4.513   3.752   7.588
39581SOL     OW20749   6.635   6.645   2.106
39581SOL    HW120750   6.607   6.722   2.155
39581SOL    HW220751   6.582   6.573   2.141
39582SOL     OW20752  10.527  10.392   3.378
39582SOL    HW120753  10.618  10.410   3.354
39582SOL    HW220754  10.526  10.395   3.473
39583SOL     OW20755   7.717   5.252   2.079
39583SOL    HW120756   7.682   5.274   1.993
39583SOL    HW220757   7.644   5.213   2.126
39584SOL     OW20758   0.380   9.319   8.235
39584SOL    HW120759   0.355   9.251   8.171
39584SOL    HW220760   0.393   9.398   8.182
39585SOL     OW20761   0.051   6.842   9.178
39585SOL    HW120762   0.120   6.817   9.239
39585SOL    HW220763   0.091   6.909   9.122
39586SOL     OW20764   0.598   5.354   5.953
39586SOL    HW120765   0.603   5.436   6.001
39586SOL    HW220766   0.555   5.377   5.870
39587SOL     OW20767   8.964   9.469   6.770
39587SOL    HW120768   9.052   9.432   6.772
39587SOL    HW220769   8.939   9.466   6.677
39588SOL     OW20770   8.761   1.712   5.695
39588SOL    HW120771   8.711   1.751   5.766
39588SOL    HW220772   8.702   1.648   5.656
39589SOL     OW20773   0.273   9.764  10.827
39589SOL    HW120774   0.336   9.695  10.847
39589SOL    HW220775   0.270   9.767  10.731
39590SOL     OW20776   3.183  10.862   2.779
39590SOL    HW120777   3.263  10.812   2.766
39590SOL    HW220778   3.129  10.807   2.836
39591SOL     OW20779  10.123   4.062   6.904
39591SOL    HW120780  10.067   4.022   6.970
39591SOL    HW220781  10.191   4.107   6.954
39592SOL     OW20782   7.880   4.723   7.165
39592SOL    HW120783   7.880   4.679   7.250
39592SOL    HW220784   7.968   4.707   7.130
39593SOL     OW20785   2.011   8.570   6.658
39593SOL    HW120786   2.054   8.508   6.599
39593SOL    HW220787   1.982   8.641   6.601
39594SOL     OW20788   2.710   8.487   9.802
39594SOL    HW120789   2.705   8.400   9.842
39594SOL    HW220790   2.803   8.510   9.807
39595SOL     OW20791   9.193  10.693   5.202
39595SOL    HW120792   9.234  10.684   5.288
39595SOL    HW220793   9.238  10.628   5.147
39596SOL     OW20794   2.509   1.028   3.821
39596SOL    HW120795   2.508   1.011   3.915
39596SOL    HW220796   2.552   1.113   3.812
39597SOL     OW20797   3.860   6.241   8.245
39597SOL    HW120798   3.831   6.157   8.280
39597SOL    HW220799   3.806   6.306   8.289
39598SOL     OW20800   0.787   2.479   9.028
39598SOL    HW120801   0.701   2.518   9.044
39598SOL    HW220802   0.844   2.517   9.094
39599SOL     OW20803   7.040   0.127   1.123
39599SOL    HW120804   7.126   0.114   1.083
39599SOL    HW220805   6.993   0.181   1.060
39600SOL     OW20806   8.253   4.221   7.033
39600SOL    HW120807   8.169   4.206   7.076
39600SOL    HW220808   8.231   4.265   6.951
39601SOL     OW20809   2.082   5.795   6.908
39601SOL    HW120810   2.109   5.767   6.995
39601SOL    HW220811   2.131   5.876   6.892
39602SOL     OW20812   2.345   3.667   9.630
39602SOL    HW120813   2.361   3.750   9.675
39602SOL    HW220814   2.254   3.646   9.649
39603SOL     OW20815   0.163   3.691   6.768
39603SOL    HW120816   0.251   3.695   6.805
39603SOL    HW220817   0.137   3.599   6.779
39604SOL     OW20818   0.127   0.213   5.850
39604SOL    HW120819   0.197   0.196   5.787
39604SOL    HW220820   0.051   0.234   5.795
39605SOL     OW20821   7.874   3.913   7.905
39605SOL    HW120822   7.845   3.961   7.982
39605SOL    HW220823   7.931   3.844   7.939
39606SOL     OW20824  10.447   2.917  10.259
39606SOL    HW120825  10.452   2.962  10.174
39606SOL    HW220826  10.419   2.828  10.237
39607SOL     OW20827   6.169   2.425   0.266
39607SOL    HW120828   6.225   2.350   0.289
39607SOL    HW220829   6.080   2.395   0.287
39608SOL     OW20830  10.455  10.065   7.327
39608SOL    HW120831  10.396  10.111   7.267
39608SOL    HW220832  10.419   9.976   7.333
39609SOL     OW20833   8.760   2.822   6.941
39609SOL    HW120834   8.681   2.842   6.890
39609SOL    HW220835   8.799   2.747   6.896
39610SOL     OW20836   0.810   3.628   9.578
39610SOL    HW120837   0.882   3.608   9.517
39610SOL    HW220838   0.850   3.682   9.646
39611SOL     OW20839   2.579  10.873   8.480
39611SOL    HW120840   2.594  10.903   8.390
39611SOL    HW220841   2.501  10.920   8.508
39612SOL     OW20842  10.905   2.047   0.809
39612SOL    HW120843  10.853   2.036   0.888
39612SOL    HW220844  10.992   2.014   0.832
39613SOL     OW20845   1.111   5.765   6.274
39613SOL    HW120846   1.027   5.771   6.228
39613SOL    HW220847   1.127   5.853   6.307
39614SOL     OW20848   7.731   2.047   1.643
39614SOL    HW120849   7.651   2.056   1.695
39614SOL    HW220850   7.715   1.971   1.587
39615SOL     OW20851  10.857   3.407   8.275
39615SOL    HW120852  10.891   3.327   8.316
39615SOL    HW220853  10.886   3.478   8.332
39616SOL     OW20854   5.133   0.210  10.357
39616SOL    HW120855   5.115   0.252  10.440
39616SOL    HW220856   5.180   0.276  10.306
39617SOL     OW20857   8.938   8.741   4.473
39617SOL    HW120858   8.845   8.743   4.452
39617SOL    HW220859   8.971   8.827   4.447
39618SOL     OW20860   9.239  10.491   7.951
39618SOL    HW120861   9.332  10.485   7.973
39618SOL    HW220862   9.203  10.554   8.013
39619SOL     OW20863   0.496   0.615   0.823
39619SOL    HW120864   0.462   0.610   0.733
39619SOL    HW220865   0.433   0.565   0.875
39620SOL     OW20866   0.401   0.853   2.216
39620SOL    HW120867   0.486   0.813   2.233
39620SOL    HW220868   0.403   0.936   2.263
39621SOL     OW20869   0.302   3.931   4.830
39621SOL    HW120870   0.319   4.014   4.873
39621SOL    HW220871   0.296   3.952   4.737
39622SOL     OW20872   2.482   4.234   2.643
39622SOL    HW120873   2.521   4.230   2.555
39622SOL    HW220874   2.555   4.214   2.702
39623SOL     OW20875   8.713   6.495   4.529
39623SOL    HW120876   8.642   6.475   4.468
39623SOL    HW220877   8.747   6.409   4.555
39624SOL     OW20878  10.110  10.665   1.578
39624SOL    HW120879  10.145  10.744   1.619
39624SOL    HW220880  10.057  10.698   1.505
39625SOL     OW20881   7.293   4.978   5.776
39625SOL    HW120882   7.311   4.887   5.799
39625SOL    HW220883   7.343   5.029   5.839
39626SOL     OW20884   3.358   2.937   9.659
39626SOL    HW120885   3.443   2.976   9.636
39626SOL    HW220886   3.339   2.970   9.746
39627SOL     OW20887   3.170   8.595   9.138
39627SOL    HW120888   3.234   8.548   9.084
39627SOL    HW220889   3.122   8.526   9.183
39628SOL     OW20890   5.540   9.412   0.912
39628SOL    HW120891   5.454   9.449   0.932
39628SOL    HW220892   5.565   9.364   0.991
39629SOL     OW20893   0.026   8.361   5.935
39629SOL    HW120894   0.119   8.366   5.956
39629SOL    HW220895  -0.017   8.345   6.019
39630SOL     OW20896   2.859   1.381  10.372
39630SOL    HW120897   2.903   1.296  10.383
39630SOL    HW220898   2.851   1.392  10.277
39631SOL     OW20899   8.706   2.959   5.623
39631SOL    HW120900   8.688   3.048   5.652
39631SOL    HW220901   8.792   2.938   5.659
39632SOL     OW20902   7.176   6.086   4.031
39632SOL    HW120903   7.186   5.993   4.054
39632SOL    HW220904   7.256   6.127   4.063
39633SOL     OW20905   0.966   4.783   2.503
39633SOL    HW120906   1.007   4.863   2.470
39633SOL    HW220907   1.035   4.740   2.554
39634SOL     OW20908   2.643   1.771   8.443
39634SOL    HW120909   2.677   1.756   8.531
39634SOL    HW220910   2.670   1.693   8.394
39635SOL     OW20911   6.368   0.845   0.757
39635SOL    HW120912   6.374   0.837   0.662
39635SOL    HW220913   6.459   0.850   0.786
39636SOL     OW20914   9.515   8.638  10.100
39636SOL    HW120915   9.526   8.725  10.138
39636SOL    HW220916   9.517   8.578  10.175
39637SOL     OW20917   0.089   6.304   8.685
39637SOL    HW120918   0.117   6.248   8.757
39637SOL    HW220919   0.112   6.254   8.606
39638SOL     OW20920  10.703   0.682   9.809
39638SOL    HW120921  10.756   0.602   9.813
39638SOL    HW220922  10.617   0.652   9.779
39639SOL     OW20923   7.754   1.823   7.752
39639SOL    HW120924   7.717   1.738   7.727
39639SOL    HW220925   7.837   1.828   7.703
39640SOL     OW20926   8.061   5.393   3.340
39640SOL    HW120927   8.041   5.304   3.310
39640SOL    HW220928   8.060   5.387   3.435
39641SOL     OW20929   2.796   3.712   7.123
39641SOL    HW120930   2.853   3.636   7.110
39641SOL    HW220931   2.778   3.713   7.217
39642SOL     OW20932   9.566   9.985   4.677
39642SOL    HW120933   9.609  10.023   4.753
39642SOL    HW220934   9.563  10.056   4.613
39643SOL     OW20935   4.450  10.959   3.566
39643SOL    HW120936   4.536  10.934   3.600
39643SOL    HW220937   4.389  10.936   3.635
39644SOL     OW20938  10.543   5.312   6.638
39644SOL    HW120939  10.567   5.224   6.668
39644SOL    HW220940  10.514   5.357   6.717
39645SOL     OW20941  10.056   3.181   9.208
39645SOL    HW120942  10.009   3.143   9.133
39645SOL    HW220943  10.136   3.128   9.215
39646SOL     OW20944   1.591   3.973   2.434
39646SOL    HW120945   1.676   4.016   2.444
39646SOL    HW220946   1.590   3.907   2.503
39647SOL     OW20947   2.248   6.725   7.337
39647SOL    HW120948   2.312   6.665   7.298
39647SOL    HW220949   2.256   6.710   7.431
39648SOL     OW20950   1.919   5.868   0.903
39648SOL    HW120951   1.918   5.791   0.845
39648SOL    HW220952   1.872   5.839   0.981
39649SOL     OW20953   1.626   1.307   6.138
39649SOL    HW120954   1.658   1.394   6.162
39649SOL    HW220955   1.636   1.303   6.043
39650SOL     OW20956   8.631  11.097   1.466
39650SOL    HW120957   8.583  11.015   1.454
39650SOL    HW220958   8.721  11.070   1.482
39651SOL     OW20959  10.116   5.846   4.879
39651SOL    HW120960  10.050   5.777   4.888
39651SOL    HW220961  10.078   5.907   4.816
39652SOL     OW20962   8.277   9.294   9.710
39652SOL    HW120963   8.344   9.236   9.673
39652SOL    HW220964   8.326   9.361   9.758
39653SOL     OW20965   8.827   2.867   2.399
39653SOL    HW120966   8.917   2.884   2.428
39653SOL    HW220967   8.799   2.949   2.359
39654SOL     OW20968   5.293   5.318   9.484
39654SOL    HW120969   5.376   5.298   9.439
39654SOL    HW220970   5.228   5.320   9.414
39655SOL     OW20971   9.287  10.196   9.077
39655SOL    HW120972   9.314  10.283   9.048
39655SOL    HW220973   9.365  10.159   9.119
39656SOL     OW20974   0.289   2.458   0.291
39656SOL    HW120975   0.364   2.461   0.350
39656SOL    HW220976   0.214   2.480   0.346
39657SOL     OW20977   0.795  10.823  10.598
39657SOL    HW120978   0.714  10.830  10.548
39657SOL    HW220979   0.803  10.907  10.642
39658SOL     OW20980   7.221   4.482   9.470
39658SOL    HW120981   7.145   4.533   9.495
39658SOL    HW220982   7.265   4.461   9.552
39659SOL     OW20983   4.883   4.069   0.076
39659SOL    HW120984   4.813   4.019   0.034
39659SOL    HW220985   4.861   4.068   0.169
39660SOL     OW20986   8.554   2.737   6.205
39660SOL    HW120987   8.589   2.770   6.122
39660SOL    HW220988   8.460   2.729   6.190
39661SOL     OW20989   6.930   1.644   7.642
39661SOL    HW120990   6.931   1.550   7.663
39661SOL    HW220991   6.981   1.685   7.712
39662SOL     OW20992   0.768   8.764   1.335
39662SOL    HW120993   0.742   8.843   1.288
39662SOL    HW220994   0.709   8.759   1.410
39663SOL     OW20995   5.494   4.454  11.033
39663SOL    HW120996   5.569   4.423  11.084
39663SOL    HW220997   5.430   4.383  11.040
39664SOL     OW20998   6.420  10.902   1.380
39664SOL    HW120999   6.492  10.895   1.442
39664SOL    HW221000   6.360  10.831   1.404
39665SOL     OW21001   7.051   7.235   8.229
39665SOL    HW121002   6.962   7.271   8.229
39665SOL    HW221003   7.102   7.297   8.177
39666SOL     OW21004   3.463   4.983   3.093
39666SOL    HW121005   3.476   4.946   3.180
39666SOL    HW221006   3.369   4.976   3.078
39667SOL     OW21007   6.805   5.118   1.544
39667SOL    HW121008   6.741   5.183   1.515
39667SOL    HW221009   6.798   5.118   1.639
39668SOL     OW21010  10.607   1.245   9.464
39668SOL    HW121011  10.613   1.250   9.559
39668SOL    HW221012  10.684   1.195   9.437
39669SOL     OW21013   0.891   2.560   1.331
39669SOL    HW121014   0.933   2.641   1.360
39669SOL    HW221015   0.797   2.579   1.335
39670SOL     OW21016   8.133   6.726   3.649
39670SOL    HW121017   8.059   6.665   3.641
39670SOL    HW221018   8.093   6.811   3.666
39671SOL     OW21019  10.223   3.815   0.723
39671SOL    HW121020  10.164   3.829   0.649
39671SOL    HW221021  10.290   3.756   0.688
39672SOL     OW21022   0.201   1.340   9.631
39672SOL    HW121023   0.120   1.389   9.615
39672SOL    HW221024   0.215   1.346   9.725
39673SOL     OW21025   4.794   6.412   5.611
39673SOL    HW121026   4.790   6.449   5.523
39673SOL    HW221027   4.731   6.340   5.609
39674SOL     OW21028  10.953   1.653   6.943
39674SOL    HW121029  10.998   1.675   6.861
39674SOL    HW221030  11.022   1.653   7.009
39675SOL     OW21031   8.110   0.361  10.907
39675SOL    HW121032   8.133   0.276  10.868
39675SOL    HW221033   8.194   0.401  10.930
39676SOL     OW21034   9.118   2.133   1.350
39676SOL    HW121035   9.054   2.073   1.311
39676SOL    HW221036   9.067   2.210   1.375
39677SOL     OW21037   0.137  10.318   1.445
39677SOL    HW121038   0.124  10.269   1.364
39677SOL    HW221039   0.055  10.367   1.457
39678SOL     OW21040   1.148   5.053   7.949
39678SOL    HW121041   1.176   4.979   7.895
39678SOL    HW221042   1.122   5.120   7.886
39679SOL     OW21043   3.070   5.606  10.410
39679SOL    HW121044   3.111   5.520  10.398
39679SOL    HW221045   3.065   5.617  10.505
39680SOL     OW21046   7.326  10.672   7.650
39680SOL    HW121047   7.321  10.745   7.711
39680SOL    HW221048   7.272  10.700   7.575
39681SOL     OW21049   0.502   0.904   4.468
39681SOL    HW121050   0.555   0.978   4.496
39681SOL    HW221051   0.486   0.920   4.375
39682SOL     OW21052   1.795   2.506   8.677
39682SOL    HW121053   1.751   2.481   8.758
39682SOL    HW221054   1.795   2.601   8.677
39683SOL     OW21055  10.324   8.953  10.461
39683SOL    HW121056  10.404   8.931  10.413
39683SOL    HW221057  10.279   8.869  10.471
39684SOL     OW21058   4.381   3.739   0.596
39684SOL    HW121059   4.401   3.660   0.545
39684SOL    HW221060   4.292   3.762   0.569
39685SOL     OW21061   0.584   2.051   8.243
39685SOL    HW121062   0.555   2.104   8.317
39685SOL    HW221063   0.573   2.108   8.167
39686SOL     OW21064   9.645   6.918   1.054
39686SOL    HW121065   9.618   6.979   0.985
39686SOL    HW221066   9.715   6.866   1.013
39687SOL     OW21067   8.168   1.952   0.255
39687SOL    HW121068   8.146   2.001   0.175
39687SOL    HW221069   8.181   1.862   0.225
39688SOL     OW21070   8.779   1.946   5.284
39688SOL    HW121071   8.801   1.990   5.366
39688SOL    HW221072   8.827   1.863   5.288
39689SOL     OW21073   5.980   6.327   0.527
39689SOL    HW121074   5.946   6.402   0.478
39689SOL    HW221075   5.944   6.337   0.615
39690SOL     OW21076  10.898   8.239  10.497
39690SOL    HW121077  10.863   8.163  10.449
39690SOL    HW221078  10.855   8.236  10.582
39691SOL     OW21079   0.676   2.745   5.014
39691SOL    HW121080   0.605   2.683   4.996
39691SOL    HW221081   0.663   2.770   5.105
39692SOL     OW21082   2.191   8.298   4.391
39692SOL    HW121083   2.195   8.217   4.340
39692SOL    HW221084   2.108   8.292   4.438
39693SOL     OW21085   1.461   8.553   9.196
39693SOL    HW121086   1.390   8.519   9.141
39693SOL    HW221087   1.539   8.544   9.141
39694SOL     OW21088   1.914   5.493   7.509
39694SOL    HW121089   1.901   5.498   7.603
39694SOL    HW221090   1.825   5.490   7.473
39695SOL     OW21091   0.582   2.317   9.678
39695SOL    HW121092   0.579   2.412   9.677
39695SOL    HW221093   0.497   2.290   9.711
39696SOL     OW21094   4.900  11.052   5.124
39696SOL    HW121095   4.873  11.144   5.130
39696SOL    HW221096   4.819  11.002   5.132
39697SOL     OW21097   4.037   3.083   1.669
39697SOL    HW121098   3.974   3.096   1.598
39697SOL    HW221099   3.996   3.122   1.746
39698SOL     OW21100  10.480   9.729   2.576
39698SOL    HW121101  10.536   9.652   2.590
39698SOL    HW221102  10.398   9.693   2.542
39699SOL     OW21103   2.286   3.982   3.638
39699SOL    HW121104   2.300   3.904   3.692
39699SOL    HW221105   2.292   4.055   3.699
39700SOL     OW21106   9.622   3.427   8.516
39700SOL    HW121107   9.678   3.440   8.592
39700SOL    HW221108   9.580   3.511   8.501
39701SOL     OW21109   3.060  11.046   5.404
39701SOL    HW121110   3.076  11.018   5.314
39701SOL    HW221111   2.967  11.066   5.407
39702SOL     OW21112   8.716   5.349   1.709
39702SOL    HW121113   8.629   5.365   1.673
39702SOL    HW221114   8.776   5.377   1.640
39703SOL     OW21115   9.498   4.246  10.666
39703SOL    HW121116   9.583   4.220  10.629
39703SOL    HW221117   9.434   4.192  10.619
39704SOL     OW21118   9.718   3.040   9.901
39704SOL    HW121119   9.656   3.063   9.970
39704SOL    HW221120   9.802   3.074   9.931
39705SOL     OW21121   7.108   0.079   0.515
39705SOL    HW121122   7.106   0.035   0.600
39705SOL    HW221123   7.190   0.049   0.474
39706SOL     OW21124   2.620   5.975   1.836
39706SOL    HW121125   2.698   5.958   1.782
39706SOL    HW221126   2.645   5.947   1.924
39707SOL     OW21127   0.822   2.535   3.185
39707SOL    HW121128   0.867   2.574   3.110
39707SOL    HW221129   0.878   2.556   3.260
39708SOL     OW21130  10.468   5.369   1.293
39708SOL    HW121131  10.549   5.414   1.319
39708SOL    HW221132  10.497   5.303   1.230
39709SOL     OW21133   9.020   3.395   5.952
39709SOL    HW121134   9.009   3.372   5.859
39709SOL    HW221135   8.947   3.351   5.996
39710SOL     OW21136  10.897   3.264   3.835
39710SOL    HW121137  10.817   3.244   3.786
39710SOL    HW221138  10.923   3.350   3.804
39711SOL     OW21139   9.239   2.929   0.168
39711SOL    HW121140   9.323   2.884   0.175
39711SOL    HW221141   9.206   2.906   0.081
39712SOL     OW21142   0.597   7.938   8.994
39712SOL    HW121143   0.557   8.010   8.945
39712SOL    HW221144   0.680   7.973   9.026
39713SOL     OW21145   1.778   9.874  10.704
39713SOL    HW121146   1.689   9.906  10.715
39713SOL    HW221147   1.772   9.780  10.721
39714SOL     OW21148   1.717   4.109  10.848
39714SOL    HW121149   1.645   4.089  10.907
39714SOL    HW221150   1.718   4.036  10.786
39715SOL     OW21151   5.079   2.645  10.626
39715SOL    HW121152   5.166   2.622  10.659
39715SOL    HW221153   5.020   2.629  10.699
39716SOL     OW21154   4.146   2.327  10.288
39716SOL    HW121155   4.135   2.259  10.221
39716SOL    HW221156   4.239   2.321  10.311
39717SOL     OW21157   1.791   7.502   7.830
39717SOL    HW121158   1.849   7.574   7.852
39717SOL    HW221159   1.828   7.466   7.749
39718SOL     OW21160   9.497   6.987   9.788
39718SOL    HW121161   9.469   7.038   9.863
39718SOL    HW221162   9.492   7.048   9.714
39719SOL     OW21163  10.126   4.135   8.386
39719SOL    HW121164  10.067   4.060   8.373
39719SOL    HW221165  10.077   4.210   8.353
39720SOL     OW21166   3.398   2.316   5.794
39720SOL    HW121167   3.474   2.362   5.758
39720SOL    HW221168   3.327   2.335   5.733
39721SOL     OW21169   1.905   8.563   3.537
39721SOL    HW121170   1.913   8.650   3.575
39721SOL    HW221171   1.903   8.578   3.442
39722SOL     OW21172   2.947   3.749   6.884
39722SOL    HW121173   2.926   3.787   6.799
39722SOL    HW221174   2.901   3.804   6.947
39723SOL     OW21175  10.140   4.553   8.013
39723SOL    HW121176  10.136   4.480   7.951
39723SOL    HW221177  10.177   4.625   7.962
39724SOL     OW21178   1.745   2.776   2.664
39724SOL    HW121179   1.768   2.692   2.704
39724SOL    HW221180   1.728   2.755   2.572
39725SOL     OW21181   9.013   6.477   2.895
39725SOL    HW121182   9.006   6.566   2.861
39725SOL    HW221183   8.969   6.423   2.829
39726SOL     OW21184  10.756   8.296   0.584
39726SOL    HW121185  10.794   8.340   0.660
39726SOL    HW221186  10.815   8.222   0.568
39727SOL     OW21187   8.059   7.340  10.561
39727SOL    HW121188   8.100   7.254  10.552
39727SOL    HW221189   8.127   7.395  10.600
39728SOL     OW21190   0.950   4.808  10.975
39728SOL    HW121191   0.903   4.738  10.930
39728SOL    HW221192   0.886   4.844  11.036
39729SOL     OW21193   6.779   0.431   8.215
39729SOL    HW121194   6.753   0.340   8.198
39729SOL    HW221195   6.768   0.442   8.309
39730SOL     OW21196   9.957   4.275   5.899
39730SOL    HW121197   9.939   4.227   5.818
39730SOL    HW221198   9.904   4.354   5.892
39731SOL     OW21199   3.012   0.279   2.706
39731SOL    HW121200   3.064   0.204   2.678
39731SOL    HW221201   2.960   0.246   2.779
39732SOL     OW21202   6.469   9.093   7.683
39732SOL    HW121203   6.515   9.089   7.599
39732SOL    HW221204   6.398   9.155   7.668
39733SOL     OW21205   8.867   3.214   8.387
39733SOL    HW121206   8.826   3.137   8.347
39733SOL    HW221207   8.916   3.255   8.315
39734SOL     OW21208  10.461   6.796   3.505
39734SOL    HW121209  10.458   6.789   3.600
39734SOL    HW221210  10.468   6.890   3.488
39735SOL     OW21211   5.197   8.297   2.731
39735SOL    HW121212   5.237   8.376   2.768
39735SOL    HW221213   5.114   8.327   2.694
39736SOL     OW21214  10.890   3.852   1.264
39736SOL    HW121215  10.947   3.778   1.285
39736SOL    HW221216  10.921   3.923   1.320
39737SOL     OW21217   9.501   5.905  10.220
39737SOL    HW121218   9.590   5.898  10.186
39737SOL    HW221219   9.509   5.884  10.313
39738SOL     OW21220   4.509  10.787   1.519
39738SOL    HW121221   4.577  10.759   1.580
39738SOL    HW221222   4.527  10.737   1.439
39739SOL     OW21223   3.129   3.824  10.069
39739SOL    HW121224   3.165   3.800  10.154
39739SOL    HW221225   3.037   3.798  10.073
39740SOL     OW21226   8.898   8.802   5.090
39740SOL    HW121227   8.970   8.864   5.080
39740SOL    HW221228   8.938   8.716   5.073
39741SOL     OW21229   2.842   5.434   6.297
39741SOL    HW121230   2.937   5.428   6.284
39741SOL    HW221231   2.822   5.526   6.285
39742SOL     OW21232   3.374   2.428   5.383
39742SOL    HW121233   3.427   2.348   5.374
39742SOL    HW221234   3.433   2.491   5.425
39743SOL     OW21235  10.331   5.184   9.441
39743SOL    HW121236  10.390   5.116   9.406
39743SOL    HW221237  10.300   5.148   9.524
39744SOL     OW21238   3.353   1.488  10.103
39744SOL    HW121239   3.441   1.503  10.138
39744SOL    HW221240   3.334   1.396  10.124
39745SOL     OW21241   3.027   2.710  10.565
39745SOL    HW121242   2.941   2.713  10.606
39745SOL    HW221243   3.014   2.657  10.486
39746SOL     OW21244   4.923   4.130   9.521
39746SOL    HW121245   4.830   4.146   9.537
39746SOL    HW221246   4.925   4.055   9.460
39747SOL     OW21247   7.982   9.178   6.758
39747SOL    HW121248   7.898   9.138   6.780
39747SOL    HW221249   7.964   9.272   6.753
39748SOL     OW21250   9.211   2.368   3.844
39748SOL    HW121251   9.124   2.403   3.861
39748SOL    HW221252   9.196   2.296   3.783
39749SOL     OW21253  10.628  10.379   5.016
39749SOL    HW121254  10.543  10.381   4.972
39749SOL    HW221255  10.692  10.392   4.945
39750SOL     OW21256   5.384   0.475   8.829
39750SOL    HW121257   5.365   0.410   8.761
39750SOL    HW221258   5.478   0.464   8.846
39751SOL     OW21259   7.274   4.323   1.639
39751SOL    HW121260   7.311   4.333   1.726
39751SOL    HW221261   7.311   4.395   1.588
39752SOL     OW21262   5.418   6.227   2.633
39752SOL    HW121263   5.418   6.218   2.537
39752SOL    HW221264   5.465   6.149   2.664
39753SOL     OW21265   1.025   1.279   0.410
39753SOL    HW121266   1.120   1.276   0.399
39753SOL    HW221267   0.992   1.305   0.324
39754SOL     OW21268   9.526   5.390  10.254
39754SOL    HW121269   9.612   5.431  10.250
39754SOL    HW221270   9.513   5.371  10.347
39755SOL     OW21271   0.859   2.360   7.000
39755SOL    HW121272   0.935   2.312   6.966
39755SOL    HW221273   0.833   2.310   7.077
39756SOL     OW21274   1.155   1.047   5.932
39756SOL    HW121275   1.081   1.096   5.897
39756SOL    HW221276   1.223   1.113   5.947
39757SOL     OW21277   9.404   8.965   8.212
39757SOL    HW121278   9.365   8.965   8.299
39757SOL    HW221279   9.463   8.889   8.212
39758SOL     OW21280   0.620   9.755   1.643
39758SOL    HW121281   0.606   9.821   1.710
39758SOL    HW221282   0.612   9.671   1.689
39759SOL     OW21283   0.288   5.536  10.398
39759SOL    HW121284   0.246   5.452  10.376
39759SOL    HW221285   0.223   5.602  10.373
39760SOL     OW21286  10.930   0.639   3.317
39760SOL    HW121287  10.847   0.612   3.277
39760SOL    HW221288  10.907   0.662   3.407
39761SOL     OW21289   3.268   8.103  10.525
39761SOL    HW121290   3.354   8.062  10.534
39761SOL    HW221291   3.249   8.098  10.431
39762SOL     OW21292   2.939   2.527   6.980
39762SOL    HW121293   2.891   2.577   7.045
39762SOL    HW221294   3.008   2.586   6.950
39763SOL     OW21295  10.240   4.889   5.168
39763SOL    HW121296  10.222   4.980   5.147
39763SOL    HW221297  10.332   4.888   5.195
39764SOL     OW21298   2.251   7.064   6.407
39764SOL    HW121299   2.160   7.048   6.382
39764SOL    HW221300   2.294   6.979   6.398
39765SOL     OW21301  10.215   0.724   0.888
39765SOL    HW121302  10.278   0.776   0.937
39765SOL    HW221303  10.221   0.756   0.798
39766SOL     OW21304  10.148   2.276   9.531
39766SOL    HW121305  10.149   2.369   9.551
39766SOL    HW221306  10.098   2.269   9.449
39767SOL     OW21307   2.719   7.517   8.622
39767SOL    HW121308   2.802   7.470   8.609
39767SOL    HW221309   2.657   7.472   8.564
39768SOL     OW21310   9.366   2.883   5.293
39768SOL    HW121311   9.382   2.948   5.360
39768SOL    HW221312   9.454   2.854   5.267
39769SOL     OW21313   2.082   0.150   8.933
39769SOL    HW121314   2.103   0.238   8.902
39769SOL    HW221315   2.105   0.150   9.026
39770SOL     OW21316   0.338   1.586   0.992
39770SOL    HW121317   0.429   1.590   1.019
39770SOL    HW221318   0.291   1.555   1.069
39771SOL     OW21319   8.541   8.447   9.187
39771SOL    HW121320   8.475   8.393   9.144
39771SOL    HW221321   8.617   8.443   9.128
39772SOL     OW21322   5.930  10.619   1.713
39772SOL    HW121323   5.974  10.562   1.650
39772SOL    HW221324   5.838  10.617   1.687
39773SOL     OW21325   8.706   6.662   2.675
39773SOL    HW121326   8.743   6.583   2.715
39773SOL    HW221327   8.660   6.630   2.597
39774SOL     OW21328   3.204   4.311   9.788
39774SOL    HW121329   3.247   4.332   9.871
39774SOL    HW221330   3.166   4.394   9.759
39775SOL     OW21331   5.905   6.032   2.467
39775SOL    HW121332   5.921   6.068   2.554
39775SOL    HW221333   5.906   5.937   2.480
39776SOL     OW21334   6.633   6.616   1.202
39776SOL    HW121335   6.716   6.615   1.154
39776SOL    HW221336   6.568   6.640   1.136
39777SOL     OW21337   1.291   4.639   9.394
39777SOL    HW121338   1.340   4.559   9.376
39777SOL    HW221339   1.287   4.644   9.489
39778SOL     OW21340   7.154   4.683   8.824
39778SOL    HW121341   7.165   4.699   8.917
39778SOL    HW221342   7.064   4.710   8.805
39779SOL     OW21343  10.226  10.769   3.133
39779SOL    HW121344  10.277  10.688   3.125
39779SOL    HW221345  10.150  10.755   3.076
39780SOL     OW21346   7.896   1.619   0.247
39780SOL    HW121347   7.976   1.566   0.250
39780SOL    HW221348   7.926   1.709   0.261
39781SOL     OW21349   0.541   1.782   2.772
39781SOL    HW121350   0.551   1.689   2.794
39781SOL    HW221351   0.612   1.800   2.710
39782SOL     OW21352   4.244   3.943   5.602
39782SOL    HW121353   4.291   3.930   5.684
39782SOL    HW221354   4.243   4.038   5.589
39783SOL     OW21355   4.583   2.553   0.297
39783SOL    HW121356   4.674   2.582   0.289
39783SOL    HW221357   4.551   2.596   0.376
39784SOL     OW21358   1.308   7.472   9.912
39784SOL    HW121359   1.346   7.533   9.849
39784SOL    HW221360   1.295   7.391   9.861
39785SOL     OW21361   9.007   4.567   8.836
39785SOL    HW121362   8.950   4.625   8.786
39785SOL    HW221363   8.996   4.594   8.927
39786SOL     OW21364   2.021   1.373   0.706
39786SOL    HW121365   2.094   1.313   0.691
39786SOL    HW221366   2.028   1.438   0.636
39787SOL     OW21367   1.886   2.007   2.800
39787SOL    HW121368   1.978   1.979   2.794
39787SOL    HW221369   1.850   1.956   2.872
39788SOL     OW21370   4.672   8.285   0.751
39788SOL    HW121371   4.747   8.226   0.740
39788SOL    HW221372   4.698   8.365   0.706
39789SOL     OW21373   0.012   4.066   9.084
39789SOL    HW121374  -0.079   4.060   9.053
39789SOL    HW221375   0.014   4.146   9.135
39790SOL     OW21376   5.796   4.225   9.902
39790SOL    HW121377   5.717   4.211   9.954
39790SOL    HW221378   5.863   4.250   9.965
39791SOL     OW21379   1.762   6.205   0.767
39791SOL    HW121380   1.767   6.283   0.711
39791SOL    HW221381   1.739   6.134   0.706
39792SOL     OW21382  10.528   4.234   8.655
39792SOL    HW121383  10.498   4.315   8.695
39792SOL    HW221384  10.499   4.240   8.564
39793SOL     OW21385   8.023   0.722   6.167
39793SOL    HW121386   7.968   0.730   6.244
39793SOL    HW221387   7.976   0.769   6.098
39794SOL     OW21388   7.597   5.092   8.349
39794SOL    HW121389   7.663   5.159   8.366
39794SOL    HW221390   7.557   5.075   8.434
39795SOL     OW21391   5.045   3.755  10.453
39795SOL    HW121392   5.093   3.780  10.374
39795SOL    HW221393   4.953   3.752  10.425
39796SOL     OW21394   3.167   2.876   6.313
39796SOL    HW121395   3.154   2.893   6.406
39796SOL    HW221396   3.206   2.956   6.279
39797SOL     OW21397  10.222   6.199   7.117
39797SOL    HW121398  10.132   6.209   7.147
39797SOL    HW221399  10.264   6.281   7.140
39798SOL     OW21400   0.283   1.001   8.251
39798SOL    HW121401   0.226   0.936   8.292
39798SOL    HW221402   0.264   0.994   8.157
39799SOL     OW21403   1.208   3.520   9.367
39799SOL    HW121404   1.281   3.581   9.376
39799SOL    HW221405   1.248   3.441   9.329
39800SOL     OW21406  10.415   0.230   7.310
39800SOL    HW121407  10.501   0.208   7.346
39800SOL    HW221408  10.354   0.173   7.357
39801SOL     OW21409  10.801   5.289   1.161
39801SOL    HW121410  10.852   5.216   1.197
39801SOL    HW221411  10.769   5.256   1.077
39802SOL     OW21412  11.098   0.045   5.587
39802SOL    HW121413  11.055   0.033   5.502
39802SOL    HW221414  11.029   0.079   5.644
39803SOL     OW21415   2.017   2.196   7.686
39803SOL    HW121416   1.972   2.259   7.741
39803SOL    HW221417   1.952   2.170   7.621
39804SOL     OW21418   3.867   4.924   5.646
39804SOL    HW121419   3.828   5.007   5.673
39804SOL    HW221420   3.934   4.906   5.712
39805SOL     OW21421   0.003   2.474   9.071
39805SOL    HW121422   0.069   2.543   9.077
39805SOL    HW221423  -0.074   2.517   9.033
39806SOL     OW21424   5.539  10.275   9.064
39806SOL    HW121425   5.450  10.295   9.094
39806SOL    HW221426   5.545  10.179   9.068
39807SOL     OW21427   3.149   6.707   8.119
39807SOL    HW121428   3.211   6.705   8.045
39807SOL    HW221429   3.167   6.626   8.168
39808SOL     OW21430   2.009   0.707   6.996
39808SOL    HW121431   2.003   0.774   6.928
39808SOL    HW221432   2.100   0.678   6.993
39809SOL     OW21433   3.523   2.665   9.741
39809SOL    HW121434   3.470   2.744   9.737
39809SOL    HW221435   3.475   2.607   9.800
39810SOL     OW21436   8.121   1.061   1.080
39810SOL    HW121437   8.049   1.042   1.140
39810SOL    HW221438   8.116   0.992   1.014
39811SOL     OW21439   8.605   2.796   2.823
39811SOL    HW121440   8.595   2.701   2.816
39811SOL    HW221441   8.559   2.819   2.903
39812SOL     OW21442   1.912   0.383   5.797
39812SOL    HW121443   1.993   0.367   5.747
39812SOL    HW221444   1.862   0.301   5.788
39813SOL     OW21445   1.163   3.361  10.332
39813SOL    HW121446   1.073   3.353  10.300
39813SOL    HW221447   1.206   3.417  10.267
39814SOL     OW21448   1.159   2.369   2.217
39814SOL    HW121449   1.073   2.327   2.215
39814SOL    HW221450   1.163   2.413   2.302
39815SOL     OW21451   2.717   0.633   9.767
39815SOL    HW121452   2.752   0.614   9.679
39815SOL    HW221453   2.662   0.557   9.787
39816SOL     OW21454   0.873   5.536  10.080
39816SOL    HW121455   0.944   5.550  10.143
39816SOL    HW221456   0.795   5.568  10.124
39817SOL     OW21457   1.028   0.957   7.281
39817SOL    HW121458   0.993   1.044   7.297
39817SOL    HW221459   1.005   0.907   7.359
39818SOL     OW21460  10.419   3.699   4.858
39818SOL    HW121461  10.350   3.718   4.922
39818SOL    HW221462  10.398   3.611   4.826
39819SOL     OW21463   3.606   4.691   9.685
39819SOL    HW121464   3.600   4.782   9.658
39819SOL    HW221465   3.522   4.672   9.727
39820SOL     OW21466   6.516   4.203   5.990
39820SOL    HW121467   6.525   4.298   5.996
39820SOL    HW221468   6.489   4.176   6.077
39821SOL     OW21469   5.280   6.093   0.523
39821SOL    HW121470   5.305   6.182   0.548
39821SOL    HW221471   5.362   6.044   0.524
39822SOL     OW21472   9.895   8.085   7.915
39822SOL    HW121473   9.822   8.085   7.853
39822SOL    HW221474   9.950   8.158   7.887
39823SOL     OW21475   9.621   3.955   2.019
39823SOL    HW121476   9.705   3.985   1.985
39823SOL    HW221477   9.617   3.862   1.995
39824SOL     OW21478   2.190   6.212   4.707
39824SOL    HW121479   2.185   6.152   4.632
39824SOL    HW221480   2.277   6.197   4.744
39825SOL     OW21481  10.409   4.352   8.036
39825SOL    HW121482  10.361   4.434   8.029
39825SOL    HW221483  10.496   4.372   8.002
39826SOL     OW21484   9.702   4.242   6.248
39826SOL    HW121485   9.629   4.240   6.186
39826SOL    HW221486   9.672   4.299   6.319
39827SOL     OW21487   7.560   3.135  10.196
39827SOL    HW121488   7.500   3.100  10.262
39827SOL    HW221489   7.505   3.148  10.118
39828SOL     OW21490   3.546   5.320   1.238
39828SOL    HW121491   3.533   5.347   1.329
39828SOL    HW221492   3.473   5.261   1.220
39829SOL     OW21493   0.221  10.213   1.906
39829SOL    HW121494   0.248  10.207   1.814
39829SOL    HW221495   0.170  10.133   1.921
39830SOL     OW21496   9.426   2.684   4.443
39830SOL    HW121497   9.345   2.640   4.467
39830SOL    HW221498   9.400   2.747   4.376
39831SOL     OW21499   0.689   1.707   1.127
39831SOL    HW121500   0.766   1.659   1.156
39831SOL    HW221501   0.661   1.756   1.204
39832SOL     OW21502  10.473   3.953   0.357
39832SOL    HW121503  10.435   3.869   0.330
39832SOL    HW221504  10.527   3.979   0.282
39833SOL     OW21505   9.152   5.812  10.631
39833SOL    HW121506   9.131   5.820  10.538
39833SOL    HW221507   9.108   5.886  10.672
39834SOL     OW21508   9.065   4.822   3.275
39834SOL    HW121509   9.064   4.917   3.280
39834SOL    HW221510   8.975   4.795   3.293
39835SOL     OW21511   9.622   0.390   9.861
39835SOL    HW121512   9.608   0.440   9.941
39835SOL    HW221513   9.542   0.404   9.810
39836SOL     OW21514   9.085   4.636   9.451
39836SOL    HW121515   9.059   4.617   9.361
39836SOL    HW221516   9.002   4.646   9.498
39837SOL     OW21517   8.903   8.012  10.925
39837SOL    HW121518   8.919   7.966  10.842
39837SOL    HW221519   8.911   7.944  10.992
39838SOL     OW21520   5.967   5.306   8.690
39838SOL    HW121521   5.959   5.384   8.745
39838SOL    HW221522   6.043   5.323   8.634
39839SOL     OW21523   9.669   0.355   3.440
39839SOL    HW121524   9.662   0.428   3.501
39839SOL    HW221525   9.710   0.285   3.490
39840SOL     OW21526   9.339   2.762   1.520
39840SOL    HW121527   9.262   2.706   1.514
39840SOL    HW221528   9.367   2.755   1.611
39841SOL     OW21529  10.336   8.644   4.834
39841SOL    HW121530  10.402   8.701   4.873
39841SOL    HW221531  10.351   8.652   4.739
39842SOL     OW21532   2.779   8.688  10.727
39842SOL    HW121533   2.791   8.603  10.685
39842SOL    HW221534   2.702   8.725  10.684
39843SOL     OW21535   0.598   5.951   4.061
39843SOL    HW121536   0.614   5.912   4.147
39843SOL    HW221537   0.638   5.890   3.999
39844SOL     OW21538   0.587   4.290   0.143
39844SOL    HW121539   0.620   4.379   0.156
39844SOL    HW221540   0.498   4.292   0.178
39845SOL     OW21541  10.462   0.850   6.272
39845SOL    HW121542  10.509   0.766   6.270
39845SOL    HW221543  10.385   0.832   6.325
39846SOL     OW21544   2.249   0.830   2.538
39846SOL    HW121545   2.327   0.817   2.592
39846SOL    HW221546   2.206   0.906   2.575
39847SOL     OW21547  10.112   7.271   2.576
39847SOL    HW121548  10.150   7.307   2.496
39847SOL    HW221549  10.102   7.346   2.634
39848SOL     OW21550   9.147   5.037   8.367
39848SOL    HW121551   9.172   4.969   8.429
39848SOL    HW221552   9.185   5.008   8.284
39849SOL     OW21553  10.766   8.278   3.730
39849SOL    HW121554  10.826   8.338   3.774
39849SOL    HW221555  10.680   8.300   3.765
39850SOL     OW21556   7.384   1.869  10.175
39850SOL    HW121557   7.349   1.922  10.247
39850SOL    HW221558   7.478   1.887  10.175
39851SOL     OW21559  10.734   1.348   1.524
39851SOL    HW121560  10.686   1.324   1.603
39851SOL    HW221561  10.667   1.354   1.456
39852SOL     OW21562   1.270   5.993  10.699
39852SOL    HW121563   1.274   6.065  10.762
39852SOL    HW221564   1.190   6.009  10.649
39853SOL     OW21565   6.973  10.676   6.934
39853SOL    HW121566   6.902  10.675   6.998
39853SOL    HW221567   6.988  10.769   6.916
39854SOL     OW21568   7.921   2.212   0.724
39854SOL    HW121569   7.837   2.219   0.768
39854SOL    HW221570   7.985   2.237   0.790
39855SOL     OW21571   8.670   7.618   1.995
39855SOL    HW121572   8.575   7.626   1.988
39855SOL    HW221573   8.704   7.669   1.921
39856SOL     OW21574   3.918   0.320   6.655
39856SOL    HW121575   3.872   0.324   6.571
39856SOL    HW221576   3.863   0.370   6.715
39857SOL     OW21577   8.823   4.442   3.194
39857SOL    HW121578   8.871   4.499   3.253
39857SOL    HW221579   8.850   4.353   3.219
39858SOL     OW21580   1.326   4.579   1.308
39858SOL    HW121581   1.308   4.568   1.214
39858SOL    HW221582   1.326   4.489   1.342
39859SOL     OW21583   9.026   7.545   4.292
39859SOL    HW121584   9.043   7.532   4.385
39859SOL    HW221585   9.030   7.457   4.254
39860SOL     OW21586   0.989   9.347   1.041
39860SOL    HW121587   1.072   9.371   1.083
39860SOL    HW221588   0.938   9.305   1.110
39861SOL     OW21589   3.491   2.127  10.805
39861SOL    HW121590   3.564   2.070  10.778
39861SOL    HW221591   3.472   2.180  10.727
39862SOL     OW21592  10.934   6.366  10.905
39862SOL    HW121593  10.892   6.280  10.913
39862SOL    HW221594  10.916   6.393  10.815
39863SOL     OW21595   1.525   2.448   7.500
39863SOL    HW121596   1.562   2.359   7.499
39863SOL    HW221597   1.432   2.435   7.485
39864SOL     OW21598   3.279   0.124   4.222
39864SOL    HW121599   3.314   0.061   4.159
39864SOL    HW221600   3.356   0.168   4.258
39865SOL     OW21601   9.139   8.193   7.660
39865SOL    HW121602   9.138   8.109   7.614
39865SOL    HW221603   9.096   8.175   7.743
39866SOL     OW21604   5.849   5.380   9.153
39866SOL    HW121605   5.935   5.340   9.140
39866SOL    HW221606   5.828   5.364   9.245
39867SOL     OW21607   9.898   4.147   6.794
39867SOL    HW121608   9.980   4.104   6.819
39867SOL    HW221609   9.924   4.215   6.732
39868SOL     OW21610   8.276   3.350   9.752
39868SOL    HW121611   8.276   3.334   9.846
39868SOL    HW221612   8.290   3.263   9.713
39869SOL     OW21613   9.089   6.255   9.710
39869SOL    HW121614   9.085   6.300   9.794
39869SOL    HW221615   9.170   6.203   9.714
39870SOL     OW21616   2.604   4.644   2.910
39870SOL    HW121617   2.521   4.681   2.940
39870SOL    HW221618   2.589   4.624   2.817
39871SOL     OW21619   5.896   6.291   6.886
39871SOL    HW121620   5.956   6.355   6.924
39871SOL    HW221621   5.929   6.277   6.797
39872SOL     OW21622   6.139   0.379   2.844
39872SOL    HW121623   6.139   0.387   2.748
39872SOL    HW221624   6.171   0.290   2.860
39873SOL     OW21625  10.465   1.692   7.814
39873SOL    HW121626  10.464   1.626   7.744
39873SOL    HW221627  10.383   1.678   7.861
39874SOL     OW21628   9.094   1.348   3.629
39874SOL    HW121629   9.150   1.358   3.706
39874SOL    HW221630   9.056   1.434   3.615
39875SOL     OW21631   1.436  11.104   3.764
39875SOL    HW121632   1.408  11.038   3.827
39875SOL    HW221633   1.529  11.118   3.784
39876SOL     OW21634   7.985   9.683   3.249
39876SOL    HW121635   8.080   9.692   3.254
39876SOL    HW221636   7.962   9.629   3.324
39877SOL     OW21637   9.585   3.137   1.150
39877SOL    HW121638   9.510   3.159   1.095
39877SOL    HW221639   9.548   3.088   1.223
39878SOL     OW21640   8.544  10.727   0.400
39878SOL    HW121641   8.475  10.698   0.341
39878SOL    HW221642   8.506  10.721   0.487
39879SOL     OW21643   0.646   4.363   1.297
39879SOL    HW121644   0.733   4.368   1.257
39879SOL    HW221645   0.662   4.335   1.387
39880SOL     OW21646   2.151   4.457   5.587
39880SOL    HW121647   2.115   4.424   5.505
39880SOL    HW221648   2.094   4.529   5.611
39881SOL     OW21649   2.066   5.141   0.512
39881SOL    HW121650   2.089   5.118   0.422
39881SOL    HW221651   1.973   5.163   0.508
39882SOL     OW21652   9.836   9.617   8.788
39882SOL    HW121653   9.768   9.683   8.796
39882SOL    HW221654   9.884   9.641   8.709
39883SOL     OW21655   2.594  10.046   9.322
39883SOL    HW121656   2.640  10.036   9.405
39883SOL    HW221657   2.611  10.136   9.296
39884SOL     OW21658   7.934   6.078   0.763
39884SOL    HW121659   7.965   6.019   0.832
39884SOL    HW221660   7.861   6.124   0.802
39885SOL     OW21661   5.171  10.285   7.549
39885SOL    HW121662   5.206  10.334   7.474
39885SOL    HW221663   5.179  10.345   7.623
39886SOL     OW21664   1.517   4.107   0.798
39886SOL    HW121665   1.527   4.154   0.715
39886SOL    HW221666   1.470   4.027   0.775
39887SOL     OW21667  10.356   6.889  11.008
39887SOL    HW121668  10.438   6.877  10.960
39887SOL    HW221669  10.361   6.827  11.081
39888SOL     OW21670   3.112   3.237   1.653
39888SOL    HW121671   3.087   3.329   1.662
39888SOL    HW221672   3.061   3.191   1.720
39889SOL     OW21673  10.345   2.922   5.527
39889SOL    HW121674  10.353   2.831   5.556
39889SOL    HW221675  10.339   2.972   5.608
39890SOL     OW21676   7.446   7.930   1.621
39890SOL    HW121677   7.420   8.016   1.590
39890SOL    HW221678   7.364   7.881   1.629
39891SOL     OW21679  10.155   7.581   4.402
39891SOL    HW121680  10.101   7.625   4.336
39891SOL    HW221681  10.241   7.623   4.395
39892SOL     OW21682   9.413   1.273   8.491
39892SOL    HW121683   9.346   1.296   8.426
39892SOL    HW221684   9.407   1.177   8.499
39893SOL     OW21685   7.436   3.810   2.662
39893SOL    HW121686   7.392   3.825   2.745
39893SOL    HW221687   7.528   3.798   2.685
39894SOL     OW21688  10.737   3.703   3.345
39894SOL    HW121689  10.731   3.770   3.277
39894SOL    HW221690  10.752   3.751   3.426
39895SOL     OW21691  10.170   6.720  10.934
39895SOL    HW121692  10.117   6.742  10.857
39895SOL    HW221693  10.243   6.782  10.932
39896SOL     OW21694   7.997   4.155   6.476
39896SOL    HW121695   7.988   4.061   6.495
39896SOL    HW221696   8.065   4.159   6.408
39897SOL     OW21697  10.001   8.032   5.297
39897SOL    HW121698   9.985   8.046   5.203
39897SOL    HW221699   9.935   8.086   5.341
39898SOL     OW21700   7.679   6.072   3.825
39898SOL    HW121701   7.705   6.013   3.754
39898SOL    HW221702   7.660   6.155   3.781
39899SOL     OW21703  10.573   6.396   1.494
39899SOL    HW121704  10.611   6.312   1.521
39899SOL    HW221705  10.623   6.462   1.542
39900SOL     OW21706   5.824   7.730   2.505
39900SOL    HW121707   5.789   7.721   2.416
39900SOL    HW221708   5.747   7.739   2.561
39901SOL     OW21709   8.515   7.338   8.093
39901SOL    HW121710   8.551   7.313   8.178
39901SOL    HW221711   8.583   7.393   8.053
39902SOL     OW21712   3.401   8.788   1.182
39902SOL    HW121713   3.423   8.842   1.258
39902SOL    HW221714   3.484   8.775   1.137
39903SOL     OW21715   1.624   6.472   5.677
39903SOL    HW121716   1.541   6.511   5.652
39903SOL    HW221717   1.638   6.403   5.612
39904SOL     OW21718   7.643   4.573   7.443
39904SOL    HW121719   7.596   4.591   7.361
39904SOL    HW221720   7.710   4.509   7.419
39905SOL     OW21721   7.251   8.887   8.325
39905SOL    HW121722   7.272   8.863   8.234
39905SOL    HW221723   7.196   8.965   8.317
39906SOL     OW21724  10.681   7.633   0.284
39906SOL    HW121725  10.726   7.549   0.271
39906SOL    HW221726  10.615   7.635   0.215
39907SOL     OW21727   3.594   5.922   5.979
39907SOL    HW121728   3.597   6.010   5.942
39907SOL    HW221729   3.686   5.898   5.991
39908SOL     OW21730   6.678   2.282   2.579
39908SOL    HW121731   6.630   2.270   2.497
39908SOL    HW221732   6.688   2.193   2.614
39909SOL     OW21733   6.088  10.879  10.157
39909SOL    HW121734   6.019  10.841  10.212
39909SOL    HW221735   6.076  10.837  10.071
39910SOL     OW21736   1.007   5.868   7.238
39910SOL    HW121737   1.082   5.816   7.268
39910SOL    HW221738   0.965   5.813   7.172
39911SOL     OW21739   4.734   9.436   7.633
39911SOL    HW121740   4.664   9.480   7.682
39911SOL    HW221741   4.693   9.357   7.597
39912SOL     OW21742  10.743   1.848   0.586
39912SOL    HW121743  10.726   1.825   0.677
39912SOL    HW221744  10.839   1.852   0.580
39913SOL     OW21745   6.972   6.232   9.281
39913SOL    HW121746   7.050   6.249   9.334
39913SOL    HW221747   6.998   6.161   9.222
39914SOL     OW21748   8.972   6.614   1.696
39914SOL    HW121749   8.995   6.703   1.723
39914SOL    HW221750   8.946   6.570   1.777
39915SOL     OW21751   8.119   4.854   0.237
39915SOL    HW121752   8.179   4.789   0.198
39915SOL    HW221753   8.151   4.938   0.205
39916SOL     OW21754   8.403   2.477   2.464
39916SOL    HW121755   8.359   2.532   2.528
39916SOL    HW221756   8.464   2.536   2.419
39917SOL     OW21757   7.460   8.833   0.966
39917SOL    HW121758   7.381   8.873   1.002
39917SOL    HW221759   7.445   8.738   0.974
39918SOL     OW21760   5.962   6.297   1.905
39918SOL    HW121761   5.997   6.312   1.817
39918SOL    HW221762   6.039   6.289   1.961
39919SOL     OW21763   4.644   9.919   6.092
39919SOL    HW121764   4.696   9.873   6.157
39919SOL    HW221765   4.669   9.878   6.009
39920SOL     OW21766   8.141   0.556   8.847
39920SOL    HW121767   8.116   0.506   8.769
39920SOL    HW221768   8.077   0.531   8.913
39921SOL     OW21769   5.572   8.607  11.094
39921SOL    HW121770   5.501   8.630  11.034
39921SOL    HW221771   5.530   8.598  11.179
39922SOL     OW21772   8.172  10.233  10.412
39922SOL    HW121773   8.144  10.262  10.325
39922SOL    HW221774   8.200  10.312  10.457
39923SOL     OW21775   4.892   6.045   9.183
39923SOL    HW121776   4.844   6.005   9.111
39923SOL    HW221777   4.826   6.090   9.235
39924SOL     OW21778   0.579  10.874   1.821
39924SOL    HW121779   0.533  10.839   1.744
39924SOL    HW221780   0.671  10.852   1.806
39925SOL     OW21781   4.012   4.314   1.554
39925SOL    HW121782   4.012   4.294   1.460
39925SOL    HW221783   3.919   4.314   1.578
39926SOL     OW21784   0.728   4.569   0.801
39926SOL    HW121785   0.673   4.516   0.743
39926SOL    HW221786   0.814   4.570   0.758
39927SOL     OW21787   6.107   6.855   0.013
39927SOL    HW121788   6.063   6.936   0.039
39927SOL    HW221789   6.172   6.883  -0.051
39928SOL     OW21790   5.090   2.137   7.595
39928SOL    HW121791   5.160   2.079   7.563
39928SOL    HW221792   5.040   2.082   7.656
39929SOL     OW21793   7.464   6.610   9.630
39929SOL    HW121794   7.393   6.552   9.658
39929SOL    HW221795   7.462   6.682   9.692
39930SOL     OW21796  10.879   7.035   1.554
39930SOL    HW121797  10.921   7.106   1.506
39930SOL    HW221798  10.902   7.051   1.645
39931SOL     OW21799  10.680   4.881  10.368
39931SOL    HW121800  10.665   4.824  10.443
39931SOL    HW221801  10.592   4.905  10.338
39932SOL     OW21802  10.797   8.560   5.341
39932SOL    HW121803  10.882   8.580   5.301
39932SOL    HW221804  10.752   8.506   5.276
39933SOL     OW21805   9.631   3.171  10.246
39933SOL    HW121806   9.541   3.141  10.234
39933SOL    HW221807   9.664   3.117  10.318
39934SOL     OW21808   0.880   8.386   6.626
39934SOL    HW121809   0.827   8.464   6.611
39934SOL    HW221810   0.883   8.342   6.540
39935SOL     OW21811   9.359   2.893   3.361
39935SOL    HW121812   9.394   2.982   3.358
39935SOL    HW221813   9.372   2.859   3.272
39936SOL     OW21814  10.220   6.679   1.633
39936SOL    HW121815  10.232   6.599   1.582
39936SOL    HW221816  10.298   6.731   1.614
39937SOL     OW21817   8.045  10.513   9.652
39937SOL    HW121818   7.967  10.565   9.671
39937SOL    HW221819   8.076  10.546   9.567
39938SOL     OW21820   7.200   6.597   4.873
39938SOL    HW121821   7.188   6.667   4.937
39938SOL    HW221822   7.133   6.532   4.895
39939SOL     OW21823   3.717   6.057   8.451
39939SOL    HW121824   3.651   6.045   8.383
39939SOL    HW221825   3.669   6.094   8.525
39940SOL     OW21826   0.823   8.928   9.453
39940SOL    HW121827   0.864   9.013   9.464
39940SOL    HW221828   0.749   8.928   9.513
39941SOL     OW21829   9.028   8.125   5.925
39941SOL    HW121830   9.002   8.206   5.881
39941SOL    HW221831   9.106   8.149   5.975
39942SOL     OW21832   1.026   4.547   1.625
39942SOL    HW121833   1.011   4.454   1.609
39942SOL    HW221834   1.119   4.553   1.648
39943SOL     OW21835   3.621   0.380   3.551
39943SOL    HW121836   3.595   0.464   3.514
39943SOL    HW221837   3.634   0.324   3.474
39944SOL     OW21838   1.943  11.075   6.589
39944SOL    HW121839   1.997  11.120   6.654
39944SOL    HW221840   2.000  11.006   6.555
39945SOL     OW21841   4.956   5.677   0.253
39945SOL    HW121842   5.047   5.666   0.281
39945SOL    HW221843   4.931   5.763   0.286
39946SOL     OW21844   0.569  10.337   8.587
39946SOL    HW121845   0.630  10.338   8.513
39946SOL    HW221846   0.550  10.429   8.604
39947SOL     OW21847  10.749  10.671   4.563
39947SOL    HW121848  10.688  10.694   4.633
39947SOL    HW221849  10.759  10.752   4.512
39948SOL     OW21850   5.766   1.059   7.229
39948SOL    HW121851   5.854   1.088   7.255
39948SOL    HW221852   5.776   1.034   7.137
39949SOL     OW21853   1.962   5.220   3.360
39949SOL    HW121854   1.897   5.285   3.384
39949SOL    HW221855   2.030   5.227   3.426
39950SOL     OW21856   0.207   3.888   6.000
39950SOL    HW121857   0.188   3.885   6.094
39950SOL    HW221858   0.209   3.981   5.978
39951SOL     OW21859   1.300   8.209   8.481
39951SOL    HW121860   1.273   8.229   8.391
39951SOL    HW221861   1.242   8.262   8.536
39952SOL     OW21862  10.066   8.162   1.168
39952SOL    HW121863   9.978   8.196   1.181
39952SOL    HW221864  10.106   8.163   1.255
39953SOL     OW21865   6.465  10.479   9.414
39953SOL    HW121866   6.484  10.497   9.506
39953SOL    HW221867   6.387  10.532   9.395
39954SOL     OW21868   0.822   9.231   1.219
39954SOL    HW121869   0.754   9.246   1.153
39954SOL    HW221870   0.791   9.155   1.269
39955SOL     OW21871   8.006   9.216   7.449
39955SOL    HW121872   7.947   9.142   7.465
39955SOL    HW221873   8.038   9.241   7.535
39956SOL     OW21874  10.548   2.701   7.955
39956SOL    HW121875  10.585   2.737   8.035
39956SOL    HW221876  10.538   2.776   7.896
39957SOL     OW21877   4.912   5.336   0.755
39957SOL    HW121878   4.967   5.323   0.677
39957SOL    HW221879   4.885   5.247   0.780
39958SOL     OW21880   6.250   6.248   6.458
39958SOL    HW121881   6.343   6.245   6.435
39958SOL    HW221882   6.222   6.336   6.433
39959SOL     OW21883   2.556   6.421   8.032
39959SOL    HW121884   2.577   6.330   8.010
39959SOL    HW221885   2.641   6.463   8.045
39960SOL     OW21886   8.508   2.680   2.274
39960SOL    HW121887   8.516   2.760   2.325
39960SOL    HW221888   8.421   2.685   2.235
39961SOL     OW21889   5.095   5.442   4.643
39961SOL    HW121890   5.081   5.502   4.716
39961SOL    HW221891   5.139   5.495   4.576
39962SOL     OW21892   1.917   7.417   7.619
39962SOL    HW121893   1.923   7.358   7.543
39962SOL    HW221894   1.970   7.493   7.595
39963SOL     OW21895  10.836   5.796   1.260
39963SOL    HW121896  10.895   5.809   1.334
39963SOL    HW221897  10.843   5.876   1.209
39964SOL     OW21898  10.635   5.685   2.170
39964SOL    HW121899  10.621   5.631   2.091
39964SOL    HW221900  10.548   5.714   2.195
39965SOL     OW21901   6.906   0.851  10.028
39965SOL    HW121902   6.824   0.899  10.016
39965SOL    HW221903   6.887   0.788  10.097
39966SOL     OW21904   7.844  10.673   6.795
39966SOL    HW121905   7.758  10.712   6.811
39966SOL    HW221906   7.901  10.747   6.775
39967SOL     OW21907  11.028   4.806  10.169
39967SOL    HW121908  11.094   4.823  10.101
39967SOL    HW221909  11.079   4.789  10.248
39968SOL     OW21910  10.543   7.406   6.900
39968SOL    HW121911  10.621   7.416   6.844
39968SOL    HW221912  10.577   7.408   6.989
39969SOL     OW21913   5.817   6.877   0.224
39969SOL    HW121914   5.764   6.938   0.173
39969SOL    HW221915   5.908   6.902   0.205
39970SOL     OW21916   3.636   3.861   1.896
39970SOL    HW121917   3.628   3.954   1.918
39970SOL    HW221918   3.729   3.841   1.910
39971SOL     OW21919   8.094   3.797   5.932
39971SOL    HW121920   8.028   3.804   5.863
39971SOL    HW221921   8.166   3.748   5.891
39972SOL     OW21922   7.250   5.360   9.443
39972SOL    HW121923   7.210   5.277   9.415
39972SOL    HW221924   7.340   5.336   9.466
39973SOL     OW21925   9.257  10.753   0.169
39973SOL    HW121926   9.270  10.828   0.111
39973SOL    HW221927   9.183  10.778   0.225
39974SOL     OW21928   1.240   1.405   6.759
39974SOL    HW121929   1.198   1.363   6.683
39974SOL    HW221930   1.198   1.490   6.766
39975SOL     OW21931   8.543   6.836   5.306
39975SOL    HW121932   8.540   6.751   5.262
39975SOL    HW221933   8.608   6.825   5.375
39976SOL     OW21934  10.050   2.529   2.423
39976SOL    HW121935   9.987   2.547   2.353
39976SOL    HW221936  10.004   2.553   2.503
39977SOL     OW21937  10.372   9.583   0.291
39977SOL    HW121938  10.355   9.677   0.295
39977SOL    HW221939  10.456   9.575   0.244
39978SOL     OW21940   2.814   0.715   1.881
39978SOL    HW121941   2.726   0.751   1.871
39978SOL    HW221942   2.871   0.791   1.887
39979SOL     OW21943   0.945   3.186   1.814
39979SOL    HW121944   0.977   3.149   1.731
39979SOL    HW221945   0.906   3.111   1.860
39980SOL     OW21946   2.932   8.795   9.092
39980SOL    HW121947   2.912   8.811   9.184
39980SOL    HW221948   3.018   8.835   9.078
39981SOL     OW21949   7.033   3.416  11.001
39981SOL    HW121950   7.064   3.411  10.910
39981SOL    HW221951   7.079   3.345  11.046
39982SOL     OW21952   9.796   0.940   1.141
39982SOL    HW121953   9.764   0.870   1.198
39982SOL    HW221954   9.756   1.019   1.175
39983SOL     OW21955   1.670   4.292  10.106
39983SOL    HW121956   1.642   4.330  10.189
39983SOL    HW221957   1.604   4.225  10.086
39984SOL     OW21958   6.856   6.125   1.364
39984SOL    HW121959   6.818   6.060   1.423
39984SOL    HW221960   6.781   6.175   1.331
39985SOL     OW21961   9.995   0.260   2.596
39985SOL    HW121962   9.913   0.298   2.625
39985SOL    HW221963  10.009   0.185   2.654
39986SOL     OW21964   9.288   9.407   0.325
39986SOL    HW121965   9.301   9.314   0.346
39986SOL    HW221966   9.194   9.420   0.333
39987SOL     OW21967   8.222   3.003   2.772
39987SOL    HW121968   8.188   3.092   2.775
39987SOL    HW221969   8.248   2.984   2.862
39988SOL     OW21970   9.998   0.268   1.904
39988SOL    HW121971  10.052   0.189   1.911
39988SOL    HW221972   9.942   0.266   1.981
39989SOL     OW21973   8.639   8.945   3.397
39989SOL    HW121974   8.722   8.904   3.420
39989SOL    HW221975   8.658   8.995   3.317
39990SOL     OW21976   4.317   4.722   2.020
39990SOL    HW121977   4.271   4.650   1.977
39990SOL    HW221978   4.271   4.734   2.102
39991SOL     OW21979   4.176   3.743   9.867
39991SOL    HW121980   4.114   3.810   9.839
39991SOL    HW221981   4.256   3.762   9.817
39992SOL     OW21982   9.200   2.257  11.023
39992SOL    HW121983   9.161   2.211  10.948
39992SOL    HW221984   9.182   2.199  11.097
39993SOL     OW21985   9.704   8.559   4.742
39993SOL    HW121986   9.746   8.637   4.778
39993SOL    HW221987   9.766   8.488   4.760
39994SOL     OW21988   6.946   3.864  10.617
39994SOL    HW121989   7.031   3.909  10.616
39994SOL    HW221990   6.968   3.772  10.631
39995SOL     OW21991   9.358   5.947   6.764
39995SOL    HW121992   9.301   5.974   6.692
39995SOL    HW221993   9.328   5.997   6.839
39996SOL     OW21994   0.993   8.774   0.211
39996SOL    HW121995   0.984   8.682   0.238
39996SOL    HW221996   0.920   8.789   0.151
39997SOL     OW21997   7.276  11.086   4.973
39997SOL    HW121998   7.346  11.110   5.034
39997SOL    HW221999   7.321  11.071   4.890
39998SOL     OW22000   3.192  10.165  10.741
39998SOL    HW122001   3.251  10.187  10.813
39998SOL    HW222002   3.146  10.086  10.771
39999SOL     OW22003   9.675  10.894   0.684
39999SOL    HW122004   9.601  10.951   0.665
39999SOL    HW222005   9.670  10.825   0.617
40000SOL     OW22006   1.491   3.571   1.985
40000SOL    HW122007   1.559   3.637   2.000
40000SOL    HW222008   1.458   3.550   2.072
40001SOL     OW22009   0.033   2.811  10.733
40001SOL    HW122010  -0.027   2.786  10.803
40001SOL    HW222011   0.010   2.901  10.712
40002SOL     OW22012  10.558   4.646   9.511
40002SOL    HW122013  10.502   4.589   9.458
40002SOL    HW222014  10.611   4.693   9.446
40003SOL     OW22015   1.119   2.530   2.457
40003SOL    HW122016   1.153   2.586   2.387
40003SOL    HW222017   1.180   2.542   2.530
40004SOL     OW22018   9.381   8.032   5.154
40004SOL    HW122019   9.372   7.957   5.094
40004SOL    HW222020   9.342   8.105   5.106
40005SOL     OW22021   6.621   1.982   3.419
40005SOL    HW122022   6.601   1.894   3.386
40005SOL    HW222023   6.639   1.969   3.512
40006SOL     OW22024   4.621   6.097   7.199
40006SOL    HW122025   4.596   6.035   7.130
40006SOL    HW222026   4.623   6.182   7.155
40007SOL     OW22027   2.299   3.157   6.367
40007SOL    HW122028   2.234   3.127   6.303
40007SOL    HW222029   2.313   3.249   6.345
40008SOL     OW22030   8.927   4.803   5.056
40008SOL    HW122031   8.871   4.733   5.023
40008SOL    HW222032   9.010   4.759   5.076
40009SOL     OW22033   6.409   4.423   2.520
40009SOL    HW122034   6.393   4.501   2.572
40009SOL    HW222035   6.410   4.351   2.583
40010SOL     OW22036   8.504   5.630   1.821
40010SOL    HW122037   8.421   5.668   1.850
40010SOL    HW222038   8.487   5.536   1.817
40011SOL     OW22039  10.966   8.282   2.753
40011SOL    HW122040  11.039   8.220   2.755
40011SOL    HW222041  10.950   8.296   2.659
40012SOL     OW22042   5.797   7.388   7.991
40012SOL    HW122043   5.883   7.421   8.016
40012SOL    HW222044   5.746   7.466   7.970
40013SOL     OW22045   9.632   8.812   9.481
40013SOL    HW122046   9.644   8.787   9.572
40013SOL    HW222047   9.551   8.768   9.455
40014SOL     OW22048   3.319   0.482   2.637
40014SOL    HW122049   3.363   0.403   2.603
40014SOL    HW222050   3.358   0.554   2.587
40015SOL     OW22051   7.218   9.640   7.528
40015SOL    HW122052   7.148   9.653   7.591
40015SOL    HW222053   7.196   9.557   7.485
40016SOL     OW22054   9.408   3.358  10.047
40016SOL    HW122055   9.360   3.343   9.965
40016SOL    HW222056   9.351   3.323  10.115
40017SOL     OW22057   8.682   9.754   3.718
40017SOL    HW122058   8.632   9.811   3.776
40017SOL    HW222059   8.760   9.804   3.695
40018SOL     OW22060   5.473   8.062   4.722
40018SOL    HW122061   5.399   8.107   4.761
40018SOL    HW222062   5.533   8.132   4.695
40019SOL     OW22063   3.962  10.969  10.819
40019SOL    HW122064   4.013  10.924  10.886
40019SOL    HW222065   3.919  10.899  10.770
40020SOL     OW22066   7.426   6.304   0.355
40020SOL    HW122067   7.490   6.373   0.338
40020SOL    HW222068   7.374   6.299   0.275
40021SOL     OW22069   8.746   4.009   7.697
40021SOL    HW122070   8.652   3.993   7.704
40021SOL    HW222071   8.754   4.101   7.673
40022SOL     OW22072   0.247   2.070   8.216
40022SOL    HW122073   0.245   2.050   8.309
40022SOL    HW222074   0.323   2.022   8.183
40023SOL     OW22075   7.633   9.275  10.562
40023SOL    HW122076   7.687   9.334  10.615
40023SOL    HW222077   7.693   9.240  10.496
40024SOL     OW22078  10.278   2.183   4.574
40024SOL    HW122079  10.239   2.119   4.633
40024SOL    HW222080  10.245   2.267   4.604
40025SOL     OW22081   9.585   4.488  10.525
40025SOL    HW122082   9.543   4.404  10.543
40025SOL    HW222083   9.611   4.521  10.611
40026SOL     OW22084   4.885   6.800  10.124
40026SOL    HW122085   4.940   6.724  10.103
40026SOL    HW222086   4.887   6.806  10.219
40027SOL     OW22087  10.313   8.023   5.401
40027SOL    HW122088  10.218   8.014   5.402
40027SOL    HW222089  10.333   8.076   5.478
40028SOL     OW22090   3.981   3.252  10.749
40028SOL    HW122091   3.995   3.197  10.671
40028SOL    HW222092   4.047   3.320  10.741
40029SOL     OW22093   9.930   8.189   0.213
40029SOL    HW122094   9.866   8.189   0.284
40029SOL    HW222095   9.880   8.210   0.134
40030SOL     OW22096  10.417   4.867   3.807
40030SOL    HW122097  10.483   4.826   3.751
40030SOL    HW222098  10.353   4.797   3.823
40031SOL     OW22099   3.344   5.874   6.360
40031SOL    HW122100   3.391   5.936   6.416
40031SOL    HW222101   3.407   5.803   6.344
40032SOL     OW22102   1.607   0.881   1.162
40032SOL    HW122103   1.680   0.921   1.114
40032SOL    HW222104   1.649   0.822   1.224
40033SOL     OW22105   1.897   3.476   6.159
40033SOL    HW122106   1.843   3.423   6.100
40033SOL    HW222107   1.834   3.521   6.215
40034SOL     OW22108   9.144   7.076   3.152
40034SOL    HW122109   9.163   7.156   3.103
40034SOL    HW222110   9.204   7.011   3.115
40035SOL     OW22111   1.021   3.737   3.056
40035SOL    HW122112   0.941   3.768   3.013
40035SOL    HW222113   1.061   3.678   2.991
40036SOL     OW22114   2.681   4.987   4.951
40036SOL    HW122115   2.668   5.081   4.946
40036SOL    HW222116   2.682   4.968   5.044
40037SOL     OW22117   8.455   3.283   1.465
40037SOL    HW122118   8.443   3.201   1.513
40037SOL    HW222119   8.499   3.341   1.526
40038SOL     OW22120   2.452   0.461   7.415
40038SOL    HW122121   2.519   0.523   7.443
40038SOL    HW222122   2.369   0.504   7.434
40039SOL     OW22123   2.560   8.054   0.211
40039SOL    HW122124   2.652   8.079   0.217
40039SOL    HW222125   2.522   8.117   0.150
40040SOL     OW22126  10.288   5.664   4.976
40040SOL    HW122127  10.380   5.680   4.954
40040SOL    HW222128  10.240   5.735   4.933
40041SOL     OW22129   3.625   1.446   5.696
40041SOL    HW122130   3.616   1.417   5.787
40041SOL    HW222131   3.674   1.375   5.653
40042SOL     OW22132   9.435   8.788   7.351
40042SOL    HW122133   9.385   8.732   7.410
40042SOL    HW222134   9.521   8.796   7.392
40043SOL     OW22135   3.687   7.068   8.186
40043SOL    HW122136   3.708   7.086   8.277
40043SOL    HW222137   3.763   7.020   8.153
40044SOL     OW22138   0.464   8.689   3.438
40044SOL    HW122139   0.374   8.708   3.463
40044SOL    HW222140   0.506   8.775   3.429
40045SOL     OW22141   8.070   7.895   1.898
40045SOL    HW122142   8.061   7.896   1.802
40045SOL    HW222143   8.005   7.958   1.929
40046SOL     OW22144   0.418   7.847   3.124
40046SOL    HW122145   0.334   7.858   3.080
40046SOL    HW222146   0.474   7.914   3.085
40047SOL     OW22147   7.968   5.550   5.651
40047SOL    HW122148   7.944   5.522   5.739
40047SOL    HW222149   7.889   5.590   5.615
40048SOL     OW22150   6.515   9.750   8.445
40048SOL    HW122151   6.471   9.688   8.386
40048SOL    HW222152   6.608   9.743   8.422
40049SOL     OW22153   3.301   4.770  10.773
40049SOL    HW122154   3.275   4.835  10.838
40049SOL    HW222155   3.352   4.706  10.822
40050SOL     OW22156   9.722   3.567   3.048
40050SOL    HW122157   9.816   3.585   3.046
40050SOL    HW222158   9.681   3.650   3.023
40051SOL     OW22159   1.753   4.126   3.384
40051SOL    HW122160   1.691   4.193   3.410
40051SOL    HW222161   1.701   4.046   3.377
40052SOL     OW22162   9.955   4.655   3.632
40052SOL    HW122163  10.023   4.641   3.566
40052SOL    HW222164   9.981   4.736   3.676
40053SOL     OW22165   9.281  10.264   0.506
40053SOL    HW122166   9.210  10.324   0.483
40053SOL    HW222167   9.264  10.241   0.597
40054SOL     OW22168   3.102   6.567   6.123
40054SOL    HW122169   3.068   6.633   6.062
40054SOL    HW222170   3.196   6.582   6.125
40055SOL     OW22171   3.115   1.803   3.055
40055SOL    HW122172   3.154   1.870   2.999
40055SOL    HW222173   3.185   1.779   3.116
40056SOL     OW22174   8.201   9.268   6.335
40056SOL    HW122175   8.188   9.218   6.415
40056SOL    HW222176   8.230   9.354   6.364
40057SOL     OW22177   8.379   1.365   1.459
40057SOL    HW122178   8.329   1.325   1.387
40057SOL    HW222179   8.321   1.360   1.534
40058SOL     OW22180  10.539   2.798   9.074
40058SOL    HW122181  10.452   2.820   9.106
40058SOL    HW222182  10.529   2.710   9.036
40059SOL     OW22183   8.981   0.626   1.885
40059SOL    HW122184   8.913   0.690   1.901
40059SOL    HW222185   9.014   0.603   1.972
40060SOL     OW22186   4.423   2.639   7.422
40060SOL    HW122187   4.480   2.585   7.367
40060SOL    HW222188   4.371   2.576   7.471
40061SOL     OW22189   8.572   0.582   0.633
40061SOL    HW122190   8.623   0.663   0.634
40061SOL    HW222191   8.504   0.597   0.567
40062SOL     OW22192   8.535   5.160   4.216
40062SOL    HW122193   8.533   5.201   4.302
40062SOL    HW222194   8.581   5.077   4.229
40063SOL     OW22195   7.570   3.282   2.509
40063SOL    HW122196   7.648   3.252   2.463
40063SOL    HW222197   7.566   3.376   2.491
40064SOL     OW22198   2.561   8.778   6.241
40064SOL    HW122199   2.526   8.700   6.284
40064SOL    HW222200   2.629   8.744   6.182
40065SOL     OW22201   0.286   6.484  10.085
40065SOL    HW122202   0.329   6.406  10.120
40065SOL    HW222203   0.192   6.462  10.087
40066SOL     OW22204   5.932   3.230   3.105
40066SOL    HW122205   5.972   3.169   3.167
40066SOL    HW222206   5.952   3.193   3.019
40067SOL     OW22207  10.676   6.925   5.626
40067SOL    HW122208  10.610   6.874   5.579
40067SOL    HW222209  10.628   7.000   5.660
40068SOL     OW22210   2.990   0.536   5.733
40068SOL    HW122211   3.023   0.575   5.652
40068SOL    HW222212   2.927   0.470   5.704
40069SOL     OW22213   2.002   9.574   9.448
40069SOL    HW122214   2.008   9.669   9.448
40069SOL    HW222215   2.064   9.546   9.380
40070SOL     OW22216   9.194   6.915   6.095
40070SOL    HW122217   9.270   6.944   6.146
40070SOL    HW222218   9.225   6.837   6.049
40071SOL     OW22219   4.690   7.466   1.091
40071SOL    HW122220   4.750   7.508   1.029
40071SOL    HW222221   4.617   7.437   1.036
40072SOL     OW22222  10.450   3.315   8.479
40072SOL    HW122223  10.442   3.281   8.390
40072SOL    HW222224  10.360   3.326   8.509
40073SOL     OW22225   7.629   2.855   7.354
40073SOL    HW122226   7.640   2.950   7.351
40073SOL    HW222227   7.591   2.832   7.269
40074SOL     OW22228   1.072   5.454   2.540
40074SOL    HW122229   1.066   5.509   2.462
40074SOL    HW222230   1.031   5.505   2.609
40075SOL     OW22231   1.108   4.109   5.680
40075SOL    HW122232   1.168   4.183   5.673
40075SOL    HW222233   1.062   4.107   5.596
40076SOL     OW22234  10.466   3.237  10.707
40076SOL    HW122235  10.555   3.262  10.731
40076SOL    HW222236  10.457   3.266  10.616
40077SOL     OW22237   1.371   0.144   5.947
40077SOL    HW122238   1.376   0.213   5.881
40077SOL    HW222239   1.374   0.190   6.031
40078SOL     OW22240   3.900   1.967   9.344
40078SOL    HW122241   3.834   2.035   9.340
40078SOL    HW222242   3.856   1.889   9.309
40079SOL     OW22243   9.730   1.213   2.726
40079SOL    HW122244   9.754   1.208   2.633
40079SOL    HW222245   9.661   1.147   2.736
40080SOL     OW22246  10.267   6.483   5.638
40080SOL    HW122247  10.183   6.500   5.681
40080SOL    HW222248  10.332   6.488   5.708
40081SOL     OW22249   3.018   1.184   3.206
40081SOL    HW122250   3.090   1.170   3.144
40081SOL    HW222251   2.997   1.096   3.238
40082SOL     OW22252  10.874   9.831   7.124
40082SOL    HW122253  10.926   9.904   7.091
40082SOL    HW222254  10.794   9.871   7.156
40083SOL     OW22255   6.756   6.820  10.526
40083SOL    HW122256   6.749   6.746  10.586
40083SOL    HW222257   6.668   6.829  10.489
40084SOL     OW22258   5.286   4.440   8.334
40084SOL    HW122259   5.195   4.469   8.340
40084SOL    HW222260   5.283   4.347   8.359
40085SOL     OW22261   0.195   7.117   3.897
40085SOL    HW122262   0.249   7.147   3.824
40085SOL    HW222263   0.128   7.062   3.855
40086SOL     OW22264   4.501   4.504   9.774
40086SOL    HW122265   4.411   4.532   9.790
40086SOL    HW222266   4.493   4.423   9.722
40087SOL     OW22267   9.724   3.544   3.313
40087SOL    HW122268   9.681   3.624   3.341
40087SOL    HW222269   9.710   3.541   3.218
40088SOL     OW22270   6.783   3.985   2.111
40088SOL    HW122271   6.699   4.003   2.152
40088SOL    HW222272   6.823   3.918   2.166
40089SOL     OW22273   1.490   7.728   6.908
40089SOL    HW122274   1.489   7.755   6.816
40089SOL    HW222275   1.471   7.634   6.905
40090SOL     OW22276   1.425   3.364   6.231
40090SOL    HW122277   1.450   3.353   6.139
40090SOL    HW222278   1.389   3.452   6.236
40091SOL     OW22279   9.842   3.272   1.097
40091SOL    HW122280   9.770   3.335   1.093
40091SOL    HW222281   9.803   3.189   1.070
40092SOL     OW22282   9.396   3.758   4.328
40092SOL    HW122283   9.355   3.688   4.379
40092SOL    HW222284   9.460   3.797   4.387
40093SOL     OW22285   0.462   5.642   1.916
40093SOL    HW122286   0.523   5.661   1.987
40093SOL    HW222287   0.376   5.660   1.952
40094SOL     OW22288   1.461   8.706   7.035
40094SOL    HW122289   1.408   8.687   6.957
40094SOL    HW222290   1.446   8.631   7.093
40095SOL     OW22291   6.944   1.180   9.678
40095SOL    HW122292   6.975   1.250   9.734
40095SOL    HW222293   6.849   1.182   9.687
40096SOL     OW22294   1.856   6.431   3.677
40096SOL    HW122295   1.851   6.427   3.772
40096SOL    HW222296   1.917   6.361   3.654
40097SOL     OW22297   3.357   4.094   5.605
40097SOL    HW122298   3.309   4.129   5.680
40097SOL    HW222299   3.304   4.020   5.575
40098SOL     OW22300  10.808   0.352   2.341
40098SOL    HW122301  10.800   0.300   2.421
40098SOL    HW222302  10.896   0.390   2.345
40099SOL     OW22303   1.311   1.937   6.027
40099SOL    HW122304   1.245   1.896   5.971
40099SOL    HW222305   1.393   1.923   5.980
40100SOL     OW22306  10.870   5.739  10.172
40100SOL    HW122307  10.845   5.774  10.086
40100SOL    HW222308  10.964   5.724  10.165
40101SOL     OW22309   9.666   8.020   3.367
40101SOL    HW122310   9.665   7.964   3.445
40101SOL    HW222311   9.576   8.050   3.357
40102SOL     OW22312   2.877   0.494   2.920
40102SOL    HW122313   2.917   0.502   2.833
40102SOL    HW222314   2.945   0.456   2.975
40103SOL     OW22315   3.730   1.188   6.121
40103SOL    HW122316   3.715   1.104   6.165
40103SOL    HW222317   3.811   1.175   6.072
40104SOL     OW22318  10.980   6.585   1.317
40104SOL    HW122319  10.950   6.638   1.391
40104SOL    HW222320  11.052   6.533   1.352
40105SOL     OW22321   9.035   3.783   3.326
40105SOL    HW122322   9.100   3.712   3.329
40105SOL    HW222323   8.953   3.740   3.351
40106SOL     OW22324  11.042   1.987   3.735
40106SOL    HW122325  11.129   2.025   3.730
40106SOL    HW222326  11.058   1.895   3.758
40107SOL     OW22327   2.546   5.199  10.777
40107SOL    HW122328   2.505   5.277  10.813
40107SOL    HW222329   2.634   5.198  10.814
40108SOL     OW22330   1.100   2.798  10.366
40108SOL    HW122331   1.187   2.815  10.329
40108SOL    HW222332   1.043   2.862  10.324
40109SOL     OW22333   7.347   8.251   1.654
40109SOL    HW122334   7.291   8.231   1.728
40109SOL    HW222335   7.314   8.195   1.583
40110SOL     OW22336   5.205   4.999   2.872
40110SOL    HW122337   5.245   5.076   2.832
40110SOL    HW222338   5.157   4.957   2.800
40111SOL     OW22339   4.585   2.883   6.678
40111SOL    HW122340   4.597   2.790   6.656
40111SOL    HW222341   4.662   2.926   6.642
40112SOL     OW22342   4.661   8.662   3.265
40112SOL    HW122343   4.753   8.688   3.276
40112SOL    HW222344   4.614   8.744   3.254
40113SOL     OW22345   1.229   4.755   8.007
40113SOL    HW122346   1.318   4.760   8.042
40113SOL    HW222347   1.184   4.830   8.045
40114SOL     OW22348   3.245   2.363   3.771
40114SOL    HW122349   3.210   2.345   3.858
40114SOL    HW222350   3.317   2.301   3.761
40115SOL     OW22351  10.351   5.145   2.143
40115SOL    HW122352  10.274   5.201   2.136
40115SOL    HW222353  10.384   5.139   2.053
40116SOL     OW22354   1.457   6.757   5.485
40116SOL    HW122355   1.424   6.753   5.395
40116SOL    HW222356   1.379   6.752   5.540
40117SOL     OW22357   2.366   4.705   8.773
40117SOL    HW122358   2.429   4.758   8.724
40117SOL    HW222359   2.368   4.741   8.861
40118SOL     OW22360   0.297   3.779   2.682
40118SOL    HW122361   0.312   3.742   2.769
40118SOL    HW222362   0.379   3.766   2.635
40119SOL     OW22363   3.105   5.623   3.837
40119SOL    HW122364   3.087   5.544   3.786
40119SOL    HW222365   3.021   5.646   3.877
40120SOL     OW22366   3.948   6.576   1.122
40120SOL    HW122367   3.969   6.562   1.214
40120SOL    HW222368   4.006   6.516   1.074
40121SOL     OW22369   2.825   6.652   1.549
40121SOL    HW122370   2.861   6.679   1.464
40121SOL    HW222371   2.796   6.733   1.590
40122SOL     OW22372   0.431   9.731   4.048
40122SOL    HW122373   0.433   9.807   3.990
40122SOL    HW222374   0.483   9.665   4.002
40123SOL     OW22375   2.715   1.389   2.940
40123SOL    HW122376   2.795   1.441   2.946
40123SOL    HW222377   2.678   1.412   2.855
40124SOL     OW22378   4.384   9.419   4.133
40124SOL    HW122379   4.440   9.491   4.161
40124SOL    HW222380   4.409   9.346   4.190
40125SOL     OW22381   9.378   2.476   6.897
40125SOL    HW122382   9.293   2.519   6.891
40125SOL    HW222383   9.363   2.389   6.860
40126SOL     OW22384   1.890   3.323   9.302
40126SOL    HW122385   1.800   3.354   9.301
40126SOL    HW222386   1.902   3.283   9.216
40127SOL     OW22387   9.205   6.687   4.566
40127SOL    HW122388   9.111   6.671   4.565
40127SOL    HW222389   9.243   6.608   4.528
40128SOL     OW22390   9.121   3.330   9.232
40128SOL    HW122391   9.179   3.339   9.307
40128SOL    HW222392   9.095   3.238   9.233
40129SOL     OW22393   9.544   2.021   0.644
40129SOL    HW122394   9.534   2.026   0.549
40129SOL    HW222395   9.498   1.941   0.669
40130SOL     OW22396   9.763   3.252   0.639
40130SOL    HW122397   9.757   3.226   0.547
40130SOL    HW222398   9.776   3.169   0.686
40131SOL     OW22399   1.239   7.774   4.482
40131SOL    HW122400   1.319   7.746   4.437
40131SOL    HW222401   1.260   7.861   4.516
40132SOL     OW22402   8.700   1.753   9.797
40132SOL    HW122403   8.646   1.781   9.723
40132SOL    HW222404   8.708   1.831   9.852
40133SOL     OW22405   1.924   6.671   0.714
40133SOL    HW122406   1.929   6.606   0.643
40133SOL    HW222407   1.861   6.736   0.682
40134SOL     OW22408   9.204   7.261   4.966
40134SOL    HW122409   9.271   7.327   4.984
40134SOL    HW222410   9.149   7.261   5.044
40135SOL     OW22411   4.620   5.408   1.259
40135SOL    HW122412   4.608   5.419   1.164
40135SOL    HW222413   4.531   5.401   1.294
40136SOL     OW22414   4.877   7.145  10.099
40136SOL    HW122415   4.942   7.215  10.096
40136SOL    HW222416   4.795   7.188  10.123
40137SOL     OW22417   9.655   3.296   1.570
40137SOL    HW122418   9.580   3.315   1.513
40137SOL    HW222419   9.677   3.380   1.610
40138SOL     OW22420   3.793   6.553   9.500
40138SOL    HW122421   3.727   6.490   9.528
40138SOL    HW222422   3.764   6.636   9.536
40139SOL     OW22423   0.853   0.340   8.430
40139SOL    HW122424   0.929   0.302   8.475
40139SOL    HW222425   0.880   0.429   8.409
40140SOL     OW22426   0.566  10.776   7.959
40140SOL    HW122427   0.594  10.745   7.873
40140SOL    HW222428   0.623  10.730   8.020
40141SOL     OW22429  10.528   2.264   2.104
40141SOL    HW122430  10.516   2.358   2.110
40141SOL    HW222431  10.493   2.230   2.186
40142SOL     OW22432   0.098   5.007   3.743
40142SOL    HW122433   0.077   5.081   3.799
40142SOL    HW222434   0.169   5.038   3.687
40143SOL     OW22435   8.718   3.118   5.385
40143SOL    HW122436   8.629   3.151   5.392
40143SOL    HW222437   8.713   3.028   5.417
40144SOL     OW22438   9.671   3.779   5.715
40144SOL    HW122439   9.755   3.776   5.760
40144SOL    HW222440   9.684   3.727   5.636
40145SOL     OW22441  11.087   9.125   3.479
40145SOL    HW122442  11.129   9.039   3.470
40145SOL    HW222443  11.111   9.154   3.567
40146SOL     OW22444   8.650   3.118   1.660
40146SOL    HW122445   8.662   3.029   1.625
40146SOL    HW222446   8.738   3.145   1.688
40147SOL     OW22447   1.712   6.543   9.392
40147SOL    HW122448   1.803   6.546   9.361
40147SOL    HW222449   1.680   6.457   9.363
40148SOL     OW22450   8.711   3.785   1.182
40148SOL    HW122451   8.709   3.805   1.275
40148SOL    HW222452   8.798   3.813   1.153
40149SOL     OW22453  10.948   3.722   4.379
40149SOL    HW122454  10.899   3.767   4.310
40149SOL    HW222455  10.906   3.636   4.385
40150SOL     OW22456   1.304   6.728   1.481
40150SOL    HW122457   1.391   6.691   1.463
40150SOL    HW222458   1.256   6.656   1.522
40151SOL     OW22459  11.025   6.323   3.108
40151SOL    HW122460  11.015   6.369   3.024
40151SOL    HW222461  11.038   6.231   3.083
40152SOL     OW22462  11.023   5.000   0.989
40152SOL    HW122463  10.946   5.045   0.953
40152SOL    HW222464  11.030   5.032   1.079
40153SOL     OW22465  10.909   5.261   9.029
40153SOL    HW122466  10.897   5.245   9.122
40153SOL    HW222467  10.945   5.179   8.995
40154SOL     OW22468   2.756   5.396   0.567
40154SOL    HW122469   2.662   5.407   0.579
40154SOL    HW222470   2.792   5.388   0.655
40155SOL     OW22471   6.658   2.969   8.707
40155SOL    HW122472   6.603   2.911   8.654
40155SOL    HW222473   6.724   3.002   8.645
40156SOL     OW22474  10.770   1.953   0.029
40156SOL    HW122475  10.862   1.977   0.020
40156SOL    HW222476  10.764   1.913   0.116
40157SOL     OW22477   9.087   4.710   4.433
40157SOL    HW122478   9.033   4.677   4.505
40157SOL    HW222479   9.147   4.638   4.413
40158SOL     OW22480   7.861   1.627   2.043
40158SOL    HW122481   7.830   1.703   2.092
40158SOL    HW222482   7.957   1.634   2.045
40159SOL     OW22483   0.581   3.964   7.644
40159SOL    HW122484   0.533   3.908   7.582
40159SOL    HW222485   0.629   3.902   7.699
40160SOL     OW22486   3.758   3.102   4.185
40160SOL    HW122487   3.707   3.112   4.265
40160SOL    HW222488   3.794   3.013   4.190
40161SOL     OW22489   2.139   8.736  10.538
40161SOL    HW122490   2.060   8.698  10.575
40161SOL    HW222491   2.199   8.662  10.531
40162SOL     OW22492   3.653   0.014   2.690
40162SOL    HW122493   3.582   0.023   2.627
40162SOL    HW222494   3.731  -0.000   2.636
40163SOL     OW22495   4.701   7.742   8.393
40163SOL    HW122496   4.701   7.683   8.317
40163SOL    HW222497   4.792   7.771   8.401
40164SOL     OW22498   9.854   1.460   3.781
40164SOL    HW122499   9.903   1.384   3.749
40164SOL    HW222500   9.778   1.465   3.722
40165SOL     OW22501   4.131   1.205   3.032
40165SOL    HW122502   4.072   1.129   3.026
40165SOL    HW222503   4.082   1.270   3.081
40166SOL     OW22504   8.061   7.935   1.572
40166SOL    HW122505   8.125   7.875   1.533
40166SOL    HW222506   8.008   7.965   1.498
40167SOL     OW22507  10.713   4.963  10.992
40167SOL    HW122508  10.777   5.033  10.980
40167SOL    HW222509  10.766   4.886  11.012
40168SOL     OW22510   4.567   9.460   0.278
40168SOL    HW122511   4.537   9.502   0.197
40168SOL    HW222512   4.493   9.469   0.338
40169SOL     OW22513   4.671   2.368   2.179
40169SOL    HW122514   4.618   2.442   2.150
40169SOL    HW222515   4.684   2.316   2.099
40170SOL     OW22516   6.442   6.559   9.103
40170SOL    HW122517   6.482   6.493   9.046
40170SOL    HW222518   6.464   6.530   9.191
40171SOL     OW22519   4.675   1.786   5.248
40171SOL    HW122520   4.729   1.719   5.290
40171SOL    HW222521   4.604   1.802   5.310
40172SOL     OW22522   0.729   0.062   3.863
40172SOL    HW122523   0.682   0.033   3.784
40172SOL    HW222524   0.817   0.084   3.831
40173SOL     OW22525   5.773   6.543   2.940
40173SOL    HW122526   5.779   6.486   3.016
40173SOL    HW222527   5.730   6.489   2.873
40174SOL     OW22528   9.446   4.460   0.999
40174SOL    HW122529   9.507   4.532   0.987
40174SOL    HW222530   9.374   4.479   0.939
40175SOL     OW22531   0.823   6.022  10.433
40175SOL    HW122532   0.789   6.094  10.380
40175SOL    HW222533   0.751   5.999  10.491
40176SOL     OW22534   0.748   8.634   3.762
40176SOL    HW122535   0.777   8.569   3.826
40176SOL    HW222536   0.762   8.718   3.804
40177SOL     OW22537   3.195   0.952   5.495
40177SOL    HW122538   3.213   1.029   5.442
40177SOL    HW222539   3.144   0.984   5.569
40178SOL     OW22540   2.821   1.944   6.541
40178SOL    HW122541   2.816   1.920   6.448
40178SOL    HW222542   2.823   1.860   6.587
40179SOL     OW22543   2.237   1.409   7.423
40179SOL    HW122544   2.248   1.314   7.412
40179SOL    HW222545   2.156   1.429   7.376
40180SOL     OW22546   9.073   6.163   3.957
40180SOL    HW122547   9.012   6.176   4.029
40180SOL    HW222548   9.160   6.177   3.995
40181SOL     OW22549   4.869   4.793   0.881
40181SOL    HW122550   4.921   4.789   0.961
40181SOL    HW222551   4.892   4.712   0.834
40182SOL     OW22552   8.274   2.627   1.687
40182SOL    HW122553   8.294   2.627   1.593
40182SOL    HW222554   8.255   2.535   1.707
40183SOL     OW22555   7.831   1.594   9.159
40183SOL    HW122556   7.915   1.547   9.155
40183SOL    HW222557   7.768   1.528   9.189
40184SOL     OW22558  10.838   7.305   3.067
40184SOL    HW122559  10.802   7.311   2.978
40184SOL    HW222560  10.792   7.231   3.107
40185SOL     OW22561   2.705  10.250   1.358
40185SOL    HW122562   2.682  10.189   1.428
40185SOL    HW222563   2.790  10.219   1.327
40186SOL     OW22564   2.162   7.030   4.591
40186SOL    HW122565   2.175   7.017   4.497
40186SOL    HW222566   2.208   7.111   4.610
40187SOL     OW22567   8.935   0.181   1.824
40187SOL    HW122568   8.987   0.106   1.794
40187SOL    HW222569   8.955   0.250   1.760
40188SOL     OW22570   1.404   5.417   5.534
40188SOL    HW122571   1.391   5.330   5.572
40188SOL    HW222572   1.453   5.401   5.453
40189SOL     OW22573  10.061   1.983   2.652
40189SOL    HW122574  10.006   1.951   2.580
40189SOL    HW222575  10.071   2.076   2.635
40190SOL     OW22576   4.855   4.981   2.522
40190SOL    HW122577   4.785   4.958   2.583
40190SOL    HW222578   4.847   4.916   2.452
40191SOL     OW22579   9.121   0.416   9.681
40191SOL    HW122580   9.200   0.362   9.685
40191SOL    HW222581   9.153   0.503   9.659
40192SOL     OW22582   7.779   0.504   8.621
40192SOL    HW122583   7.706   0.459   8.663
40192SOL    HW222584   7.856   0.455   8.649
40193SOL     OW22585  10.998   4.489   0.903
40193SOL    HW122586  11.054   4.564   0.922
40193SOL    HW222587  11.042   4.414   0.944
40194SOL     OW22588   0.952   9.456   9.123
40194SOL    HW122589   1.010   9.390   9.162
40194SOL    HW222590   1.004   9.536   9.122
40195SOL     OW22591   6.790   2.320   2.914
40195SOL    HW122592   6.764   2.232   2.886
40195SOL    HW222593   6.838   2.356   2.839
40196SOL     OW22594   8.348   4.248   5.226
40196SOL    HW122595   8.418   4.228   5.164
40196SOL    HW222596   8.318   4.335   5.201
40197SOL     OW22597   9.010   7.127   1.002
40197SOL    HW122598   9.067   7.194   0.964
40197SOL    HW222599   9.017   7.140   1.096
40198SOL     OW22600  10.877   1.884   7.363
40198SOL    HW122601  10.907   1.962   7.317
40198SOL    HW222602  10.822   1.917   7.433
40199SOL     OW22603  10.152   4.384   6.167
40199SOL    HW122604  10.089   4.319   6.198
40199SOL    HW222605  10.114   4.468   6.192
40200SOL     OW22606   2.344   8.207   2.472
40200SOL    HW122607   2.263   8.218   2.521
40200SOL    HW222608   2.320   8.151   2.398
40201SOL     OW22609   1.285   5.121   8.190
40201SOL    HW122610   1.245   5.088   8.109
40201SOL    HW222611   1.379   5.107   8.177
40202SOL     OW22612   7.840   8.541   4.719
40202SOL    HW122613   7.931   8.537   4.748
40202SOL    HW222614   7.845   8.581   4.632
40203SOL     OW22615   8.630   5.553   7.243
40203SOL    HW122616   8.556   5.556   7.182
40203SOL    HW222617   8.662   5.463   7.237
40204SOL     OW22618   5.422  10.224   0.012
40204SOL    HW122619   5.358  10.155   0.031
40204SOL    HW222620   5.455  10.250   0.098
40205SOL     OW22621   9.599   0.838   1.632
40205SOL    HW122622   9.595   0.744   1.650
40205SOL    HW222623   9.614   0.844   1.537
40206SOL     OW22624   4.331   6.766   3.125
40206SOL    HW122625   4.258   6.706   3.137
40206SOL    HW222626   4.392   6.718   3.068
40207SOL     OW22627   1.237   9.881   0.793
40207SOL    HW122628   1.142   9.873   0.783
40207SOL    HW222629   1.250   9.903   0.885
40208SOL     OW22630   0.552   7.758  10.922
40208SOL    HW122631   0.590   7.845  10.914
40208SOL    HW222632   0.509   7.743  10.837
40209SOL     OW22633   3.120   7.963   3.246
40209SOL    HW122634   3.039   7.963   3.296
40209SOL    HW222635   3.184   7.920   3.303
40210SOL     OW22636   6.127   1.946   8.433
40210SOL    HW122637   6.128   1.936   8.528
40210SOL    HW222638   6.218   1.965   8.410
40211SOL     OW22639   2.055   3.460   3.475
40211SOL    HW122640   2.074   3.546   3.438
40211SOL    HW222641   2.128   3.443   3.535
40212SOL     OW22642  10.950   3.276   4.674
40212SOL    HW122643  10.898   3.209   4.628
40212SOL    HW222644  10.887   3.343   4.699
40213SOL     OW22645   1.879   9.025   7.884
40213SOL    HW122646   1.819   9.058   7.951
40213SOL    HW222647   1.844   8.939   7.860
40214SOL     OW22648   8.513   7.557   2.972
40214SOL    HW122649   8.502   7.579   2.879
40214SOL    HW222650   8.430   7.516   2.997
40215SOL     OW22651   3.577   8.083   4.688
40215SOL    HW122652   3.630   8.053   4.761
40215SOL    HW222653   3.600   8.175   4.678
40216SOL     OW22654   2.296   4.697  10.887
40216SOL    HW122655   2.223   4.675  10.829
40216SOL    HW222656   2.354   4.750  10.832
40217SOL     OW22657  11.068   8.612   1.358
40217SOL    HW122658  11.072   8.690   1.303
40217SOL    HW222659  10.996   8.560   1.321
40218SOL     OW22660   4.903   9.076   2.115
40218SOL    HW122661   4.923   9.083   2.021
40218SOL    HW222662   4.848   9.152   2.133
40219SOL     OW22663   1.705   6.995   6.399
40219SOL    HW122664   1.730   6.958   6.314
40219SOL    HW222665   1.646   6.930   6.437
40220SOL     OW22666   7.283   4.166  10.462
40220SOL    HW122667   7.293   4.113  10.541
40220SOL    HW222668   7.263   4.254  10.493
40221SOL     OW22669  10.532   0.007   0.529
40221SOL    HW122670  10.524   0.083   0.472
40221SOL    HW222671  10.623  -0.020   0.519
40222SOL     OW22672   0.302   6.054   2.022
40222SOL    HW122673   0.325   6.128   2.078
40222SOL    HW222674   0.227   6.085   1.971
40223SOL     OW22675   2.673   3.574   1.431
40223SOL    HW122676   2.596   3.630   1.426
40223SOL    HW222677   2.645   3.491   1.393
40224SOL     OW22678   7.053   4.064   2.381
40224SOL    HW122679   7.096   4.044   2.298
40224SOL    HW222680   6.960   4.059   2.361
40225SOL     OW22681   2.976   6.351   3.117
40225SOL    HW122682   2.944   6.315   3.034
40225SOL    HW222683   3.014   6.276   3.162
40226SOL     OW22684   1.261   2.307   0.256
40226SOL    HW122685   1.355   2.327   0.255
40226SOL    HW222686   1.224   2.362   0.187
40227SOL     OW22687   2.826   3.506   2.115
40227SOL    HW122688   2.892   3.439   2.135
40227SOL    HW222689   2.870   3.565   2.053
40228SOL     OW22690   8.564   9.918   8.108
40228SOL    HW122691   8.647   9.873   8.093
40228SOL    HW222692   8.508   9.888   8.036
40229SOL     OW22693  10.413   6.881   4.857
40229SOL    HW122694  10.453   6.840   4.780
40229SOL    HW222695  10.354   6.814   4.891
40230SOL     OW22696  10.581   2.980   5.330
40230SOL    HW122697  10.532   2.972   5.411
40230SOL    HW222698  10.644   2.907   5.333
40231SOL     OW22699  10.489   1.353   5.308
40231SOL    HW122700  10.540   1.357   5.227
40231SOL    HW222701  10.464   1.261   5.316
40232SOL     OW22702   9.138   9.947   2.877
40232SOL    HW122703   9.062   9.914   2.924
40232SOL    HW222704   9.107   9.962   2.787
40233SOL     OW22705   7.385   9.049   3.440
40233SOL    HW122706   7.307   9.047   3.495
40233SOL    HW222707   7.352   9.047   3.350
40234SOL     OW22708  10.645   3.222   2.901
40234SOL    HW122709  10.579   3.286   2.876
40234SOL    HW222710  10.606   3.137   2.877
40235SOL     OW22711   6.089   6.041   8.509
40235SOL    HW122712   6.148   5.987   8.561
40235SOL    HW222713   6.055   5.981   8.442
40236SOL     OW22714   2.741   9.090   6.620
40236SOL    HW122715   2.811   9.038   6.579
40236SOL    HW222716   2.726   9.162   6.559
40237SOL     OW22717   8.966   9.335   9.500
40237SOL    HW122718   9.043   9.392   9.504
40237SOL    HW222719   9.001   9.250   9.472
40238SOL     OW22720   2.762   7.345   2.197
40238SOL    HW122721   2.763   7.434   2.163
40238SOL    HW222722   2.693   7.301   2.147
40239SOL     OW22723   1.253   6.083   5.744
40239SOL    HW122724   1.330   6.111   5.695
40239SOL    HW222725   1.196   6.042   5.678
40240SOL     OW22726   8.775   5.939   5.386
40240SOL    HW122727   8.774   5.979   5.473
40240SOL    HW222728   8.751   5.847   5.401
40241SOL     OW22729   6.511   7.182   6.942
40241SOL    HW122730   6.560   7.262   6.959
40241SOL    HW222731   6.444   7.180   7.010
40242SOL     OW22732  10.731   5.988  10.018
40242SOL    HW122733  10.754   6.046   9.945
40242SOL    HW222734  10.752   5.900   9.986
40243SOL     OW22735   4.454   3.135   6.101
40243SOL    HW122736   4.493   3.105   6.183
40243SOL    HW222737   4.501   3.215   6.080
40244SOL     OW22738   1.501   2.391   9.326
40244SOL    HW122739   1.576   2.383   9.385
40244SOL    HW222740   1.445   2.457   9.366
40245SOL     OW22741   3.295   3.814   9.847
40245SOL    HW122742   3.302   3.906   9.823
40245SOL    HW222743   3.233   3.813   9.920
40246SOL     OW22744   2.695   1.876   0.978
40246SOL    HW122745   2.753   1.800   0.965
40246SOL    HW222746   2.634   1.872   0.904
40247SOL     OW22747   2.812   5.000  10.426
40247SOL    HW122748   2.828   5.007  10.332
40247SOL    HW222749   2.836   5.086  10.461
40248SOL     OW22750  10.459   3.280   4.930
40248SOL    HW122751  10.409   3.334   4.869
40248SOL    HW222752  10.397   3.259   5.000
40249SOL     OW22753   9.431   4.755   2.716
40249SOL    HW122754   9.468   4.671   2.687
40249SOL    HW222755   9.503   4.817   2.706
40250SOL     OW22756   4.482   5.003  10.124
40250SOL    HW122757   4.426   4.967  10.055
40250SOL    HW222758   4.501   5.092  10.095
40251SOL     OW22759   9.380   5.786   3.949
40251SOL    HW122760   9.314   5.810   4.014
40251SOL    HW222761   9.336   5.723   3.892
40252SOL     OW22762   7.143   2.405   6.669
40252SOL    HW122763   7.214   2.340   6.666
40252SOL    HW222764   7.096   2.385   6.750
40253SOL     OW22765   2.577   6.450   6.431
40253SOL    HW122766   2.601   6.358   6.420
40253SOL    HW222767   2.630   6.480   6.504
40254SOL     OW22768   5.763   2.286  10.749
40254SOL    HW122769   5.737   2.333  10.670
40254SOL    HW222770   5.708   2.323  10.818
40255SOL     OW22771   0.353   3.961   1.330
40255SOL    HW122772   0.323   3.876   1.363
40255SOL    HW222773   0.420   3.939   1.265
40256SOL     OW22774   4.710   4.318  10.946
40256SOL    HW122775   4.716   4.404  10.988
40256SOL    HW222776   4.754   4.258  11.006
40257SOL     OW22777   5.440   3.995   7.760
40257SOL    HW122778   5.478   4.050   7.692
40257SOL    HW222779   5.475   4.030   7.842
40258SOL     OW22780  10.271   3.693   7.431
40258SOL    HW122781  10.245   3.635   7.359
40258SOL    HW222782  10.336   3.751   7.392
40259SOL     OW22783   5.048   6.320   2.254
40259SOL    HW122784   5.012   6.266   2.325
40259SOL    HW222785   4.983   6.388   2.240
40260SOL     OW22786   8.023  11.083   8.755
40260SOL    HW122787   8.064  11.110   8.837
40260SOL    HW222788   7.929  11.091   8.771
40261SOL     OW22789   7.306   8.091   5.841
40261SOL    HW122790   7.306   8.182   5.812
40261SOL    HW222791   7.215   8.062   5.831
40262SOL     OW22792   6.182   4.671   8.825
40262SOL    HW122793   6.223   4.747   8.785
40262SOL    HW222794   6.089   4.680   8.804
40263SOL     OW22795   1.629   4.407   0.853
40263SOL    HW122796   1.678   4.350   0.794
40263SOL    HW222797   1.569   4.455   0.796
40264SOL     OW22798   0.595  10.176   7.213
40264SOL    HW122799   0.630  10.103   7.264
40264SOL    HW222800   0.565  10.136   7.131
40265SOL     OW22801   7.917   7.073   5.171
40265SOL    HW122802   7.837   7.109   5.208
40265SOL    HW222803   7.988   7.113   5.222
40266SOL     OW22804   0.185   1.999   8.830
40266SOL    HW122805   0.211   1.941   8.758
40266SOL    HW222806   0.089   2.003   8.822
40267SOL     OW22807  10.637   5.134   6.818
40267SOL    HW122808  10.728   5.103   6.810
40267SOL    HW222809  10.596   5.071   6.878
40268SOL     OW22810   9.755   5.130  10.207
40268SOL    HW122811   9.804   5.085  10.276
40268SOL    HW222812   9.664   5.124  10.235
40269SOL     OW22813   3.705   3.983   7.343
40269SOL    HW122814   3.667   3.972   7.430
40269SOL    HW222815   3.649   3.930   7.286
40270SOL     OW22816   1.845   4.381   7.827
40270SOL    HW122817   1.812   4.291   7.825
40270SOL    HW222818   1.767   4.436   7.833
40271SOL     OW22819  10.663  10.493   1.727
40271SOL    HW122820  10.582  10.502   1.777
40271SOL    HW222821  10.636  10.454   1.644
40272SOL     OW22822   2.842   9.673   4.447
40272SOL    HW122823   2.858   9.613   4.373
40272SOL    HW222824   2.748   9.667   4.462
40273SOL     OW22825   5.589   3.744   3.050
40273SOL    HW122826   5.579   3.794   3.131
40273SOL    HW222827   5.613   3.809   2.984
40274SOL     OW22828   1.079   8.574   2.207
40274SOL    HW122829   1.124   8.652   2.174
40274SOL    HW222830   1.129   8.501   2.170
40275SOL     OW22831   1.657   5.459   7.437
40275SOL    HW122832   1.640   5.529   7.374
40275SOL    HW222833   1.631   5.379   7.391
40276SOL     OW22834  11.041   5.461   3.131
40276SOL    HW122835  11.049   5.541   3.183
40276SOL    HW222836  10.995   5.399   3.188
40277SOL     OW22837  10.991   3.147   4.951
40277SOL    HW122838  10.993   3.066   4.899
40277SOL    HW222839  10.898   3.162   4.968
40278SOL     OW22840   1.926  10.821  10.137
40278SOL    HW122841   1.860  10.841  10.071
40278SOL    HW222842   1.974  10.747  10.100
40279SOL     OW22843   9.606   7.751   2.223
40279SOL    HW122844   9.556   7.832   2.213
40279SOL    HW222845   9.542   7.681   2.209
40280SOL     OW22846  10.517   7.950   6.632
40280SOL    HW122847  10.451   7.953   6.562
40280SOL    HW222848  10.588   7.896   6.596
40281SOL     OW22849   9.845   4.486   5.530
40281SOL    HW122850   9.831   4.537   5.450
40281SOL    HW222851   9.931   4.513   5.561
40282SOL     OW22852   6.244   9.527   7.759
40282SOL    HW122853   6.151   9.515   7.780
40282SOL    HW222854   6.245   9.549   7.666
40283SOL     OW22855   9.464   4.305   7.622
40283SOL    HW122856   9.550   4.285   7.584
40283SOL    HW222857   9.481   4.316   7.715
40284SOL     OW22858   4.606   3.848   6.013
40284SOL    HW122859   4.670   3.780   5.991
40284SOL    HW222860   4.650   3.901   6.079
40285SOL     OW22861   0.562  10.105   3.603
40285SOL    HW122862   0.476  10.125   3.566
40285SOL    HW222863   0.561  10.010   3.614
40286SOL     OW22864  10.486  10.761   1.063
40286SOL    HW122865  10.394  10.757   1.087
40286SOL    HW222866  10.488  10.738   0.970
40287SOL     OW22867   5.807   8.513   7.547
40287SOL    HW122868   5.745   8.497   7.618
40287SOL    HW222869   5.848   8.596   7.569
40288SOL     OW22870   9.422  10.623  10.288
40288SOL    HW122871   9.378  10.590  10.366
40288SOL    HW222872   9.364  10.598  10.216
40289SOL     OW22873   7.341   8.149   9.798
40289SOL    HW122874   7.260   8.170   9.844
40289SOL    HW222875   7.411   8.174   9.858
40290SOL     OW22876   3.087   7.730   4.884
40290SOL    HW122877   3.107   7.659   4.822
40290SOL    HW222878   3.063   7.804   4.828
40291SOL     OW22879   0.780   4.175   1.781
40291SOL    HW122880   0.782   4.239   1.852
40291SOL    HW222881   0.866   4.183   1.738
40292SOL     OW22882   3.879   3.769   2.199
40292SOL    HW122883   3.804   3.742   2.252
40292SOL    HW222884   3.955   3.732   2.244
40293SOL     OW22885   2.889   0.644  10.341
40293SOL    HW122886   2.897   0.630  10.246
40293SOL    HW222887   2.916   0.560  10.379
40294SOL     OW22888   3.018   4.276   7.246
40294SOL    HW122889   2.940   4.319   7.280
40294SOL    HW222890   3.030   4.313   7.158
40295SOL     OW22891   9.791   9.225   4.382
40295SOL    HW122892   9.756   9.266   4.303
40295SOL    HW222893   9.886   9.222   4.367
40296SOL     OW22894  10.560   3.346   3.695
40296SOL    HW122895  10.630   3.280   3.688
40296SOL    HW222896  10.583   3.412   3.629
40297SOL     OW22897  10.897   0.800   0.322
40297SOL    HW122898  10.815   0.756   0.344
40297SOL    HW222899  10.956   0.729   0.295
40298SOL     OW22900   9.784   5.895   1.264
40298SOL    HW122901   9.694   5.876   1.238
40298SOL    HW222902   9.831   5.813   1.249
40299SOL     OW22903   2.852   5.984   2.801
40299SOL    HW122904   2.851   5.950   2.890
40299SOL    HW222905   2.770   5.953   2.763
40300SOL     OW22906   4.780   5.809   5.251
40300SOL    HW122907   4.813   5.721   5.272
40300SOL    HW222908   4.704   5.820   5.308
40301SOL     OW22909   6.281   2.164   6.401
40301SOL    HW122910   6.359   2.196   6.446
40301SOL    HW222911   6.208   2.202   6.448
40302SOL     OW22912   3.836   3.373   2.557
40302SOL    HW122913   3.829   3.454   2.507
40302SOL    HW222914   3.776   3.385   2.630
40303SOL     OW22915   9.107   0.913   3.648
40303SOL    HW122916   9.186   0.965   3.633
40303SOL    HW222917   9.067   0.905   3.561
40304SOL     OW22918   1.625   6.761   9.532
40304SOL    HW122919   1.651   6.679   9.489
40304SOL    HW222920   1.566   6.733   9.602
40305SOL     OW22921   2.678   5.343   6.780
40305SOL    HW122922   2.749   5.383   6.830
40305SOL    HW222923   2.677   5.390   6.697
40306SOL     OW22924   0.360   6.691   6.674
40306SOL    HW122925   0.407   6.745   6.611
40306SOL    HW222926   0.277   6.736   6.688
40307SOL     OW22927  10.121   3.439   2.625
40307SOL    HW122928  10.085   3.492   2.554
40307SOL    HW222929  10.068   3.359   2.624
40308SOL     OW22930  10.796   9.194   0.680
40308SOL    HW122931  10.870   9.229   0.630
40308SOL    HW222932  10.739   9.155   0.613
40309SOL     OW22933   2.959  10.132   8.194
40309SOL    HW122934   3.026  10.200   8.185
40309SOL    HW222935   2.971  10.077   8.116
40310SOL     OW22936   8.445   5.396   5.545
40310SOL    HW122937   8.428   5.385   5.451
40310SOL    HW222938   8.404   5.479   5.567
40311SOL     OW22939   7.669   0.959   1.519
40311SOL    HW122940   7.683   0.870   1.553
40311SOL    HW222941   7.595   0.950   1.458
40312SOL     OW22942  10.840   4.650   8.336
40312SOL    HW122943  10.830   4.620   8.245
40312SOL    HW222944  10.888   4.579   8.379
40313SOL     OW22945   0.319   5.360   6.181
40313SOL    HW122946   0.294   5.367   6.273
40313SOL    HW222947   0.375   5.435   6.165
40314SOL     OW22948   6.923   2.024   3.914
40314SOL    HW122949   6.968   2.066   3.841
40314SOL    HW222950   6.926   2.088   3.985
40315SOL     OW22951   9.192   2.811   2.329
40315SOL    HW122952   9.189   2.795   2.234
40315SOL    HW222953   9.206   2.724   2.367
40316SOL     OW22954   6.911   7.031   3.311
40316SOL    HW122955   6.930   6.967   3.380
40316SOL    HW222956   6.997   7.056   3.277
40317SOL     OW22957   8.203   2.283   5.067
40317SOL    HW122958   8.206   2.363   5.118
40317SOL    HW222959   8.294   2.269   5.040
40318SOL     OW22960   1.146   6.187   5.405
40318SOL    HW122961   1.198   6.106   5.407
40318SOL    HW222962   1.113   6.192   5.315
40319SOL     OW22963   9.907   9.100   4.921
40319SOL    HW122964   9.995   9.066   4.904
40319SOL    HW222965   9.875   9.128   4.835
40320SOL     OW22966   3.193   4.100   8.561
40320SOL    HW122967   3.284   4.069   8.560
40320SOL    HW222968   3.178   4.132   8.472
40321SOL     OW22969   0.808   3.185   5.610
40321SOL    HW122970   0.770   3.169   5.523
40321SOL    HW222971   0.849   3.102   5.633
40322SOL     OW22972   8.468  10.975   1.888
40322SOL    HW122973   8.515  11.058   1.893
40322SOL    HW222974   8.392  10.994   1.833
40323SOL     OW22975   0.211   7.637   6.678
40323SOL    HW122976   0.189   7.613   6.768
40323SOL    HW222977   0.136   7.689   6.648
40324SOL     OW22978   8.601   2.111   6.730
40324SOL    HW122979   8.652   2.178   6.774
40324SOL    HW222980   8.652   2.090   6.652
40325SOL     OW22981  10.581   5.768   7.131
40325SOL    HW122982  10.632   5.770   7.050
40325SOL    HW222983  10.635   5.816   7.194
40326SOL     OW22984   5.643   7.990   1.441
40326SOL    HW122985   5.683   7.931   1.376
40326SOL    HW222986   5.608   7.931   1.508
40327SOL     OW22987   1.556   7.769   7.249
40327SOL    HW122988   1.465   7.773   7.277
40327SOL    HW222989   1.607   7.790   7.327
40328SOL     OW22990   6.840   7.963   7.009
40328SOL    HW122991   6.836   7.875   6.969
40328SOL    HW222992   6.774   7.961   7.078
40329SOL     OW22993   3.466   0.683   3.718
40329SOL    HW122994   3.403   0.629   3.670
40329SOL    HW222995   3.508   0.736   3.650
40330SOL     OW22996   0.024   5.205   8.206
40330SOL    HW122997   0.038   5.125   8.257
40330SOL    HW222998   0.040   5.276   8.268
40331SOL     OW22999   7.788   4.534   0.443
40331SOL    HW123000   7.791   4.453   0.392
40331SOL    HW223001   7.702   4.571   0.424
40332SOL     OW23002   0.296   5.186   8.169
40332SOL    HW123003   0.339   5.269   8.149
40332SOL    HW223004   0.202   5.204   8.159
40333SOL     OW23005   7.633   0.842   6.019
40333SOL    HW123006   7.671   0.921   5.981
40333SOL    HW223007   7.574   0.874   6.087
40334SOL     OW23008   8.825   8.052   7.108
40334SOL    HW123009   8.807   8.135   7.151
40334SOL    HW223010   8.890   8.010   7.164
40335SOL     OW23011   1.350   3.299   9.665
40335SOL    HW123012   1.340   3.204   9.651
40335SOL    HW223013   1.444   3.312   9.675
40336SOL     OW23014   1.885   6.241  10.556
40336SOL    HW123015   1.801   6.279  10.530
40336SOL    HW223016   1.935   6.236  10.474
40337SOL     OW23017   3.566   2.577   2.608
40337SOL    HW123018   3.634   2.616   2.553
40337SOL    HW223019   3.488   2.578   2.553
40338SOL     OW23020   4.924   0.695   7.257
40338SOL    HW123021   4.980   0.648   7.195
40338SOL    HW223022   4.983   0.718   7.329
40339SOL     OW23023  10.098   5.085   4.352
40339SOL    HW123024  10.071   5.000   4.318
40339SOL    HW223025  10.192   5.075   4.368
40340SOL     OW23026   0.229   7.599   2.349
40340SOL    HW123027   0.136   7.607   2.326
40340SOL    HW223028   0.243   7.667   2.415
40341SOL     OW23029  10.478   6.163   5.144
40341SOL    HW123030  10.423   6.103   5.195
40341SOL    HW223031  10.422   6.239   5.128
40342SOL     OW23032   7.708   4.504   4.151
40342SOL    HW123033   7.613   4.516   4.154
40342SOL    HW223034   7.720   4.409   4.145
40343SOL     OW23035   6.333   4.844   3.702
40343SOL    HW123036   6.344   4.936   3.725
40343SOL    HW223037   6.390   4.831   3.626
40344SOL     OW23038   6.496   0.707   4.259
40344SOL    HW123039   6.570   0.712   4.319
40344SOL    HW223040   6.448   0.629   4.287
40345SOL     OW23041   2.410   8.765   0.230
40345SOL    HW123042   2.395   8.676   0.262
40345SOL    HW223043   2.435   8.753   0.138
40346SOL     OW23044   0.832   3.154   7.374
40346SOL    HW123045   0.804   3.243   7.392
40346SOL    HW223046   0.793   3.101   7.444
40347SOL     OW23047   6.471   6.510   4.502
40347SOL    HW123048   6.411   6.584   4.501
40347SOL    HW223049   6.509   6.510   4.590
40348SOL     OW23050   9.170   5.010  10.704
40348SOL    HW123051   9.252   5.017  10.753
40348SOL    HW223052   9.178   5.076  10.635
40349SOL     OW23053   0.365   6.652   2.814
40349SOL    HW123054   0.281   6.696   2.829
40349SOL    HW223055   0.346   6.560   2.832
40350SOL     OW23056   4.163   6.668   2.767
40350SOL    HW123057   4.196   6.668   2.857
40350SOL    HW223058   4.119   6.583   2.758
40351SOL     OW23059   0.810   4.351   9.726
40351SOL    HW123060   0.776   4.266   9.755
40351SOL    HW223061   0.834   4.396   9.806
40352SOL     OW23062  10.778   6.313   4.759
40352SOL    HW123063  10.747   6.247   4.821
40352SOL    HW223064  10.770   6.396   4.806
40353SOL     OW23065   4.174   1.251   9.756
40353SOL    HW123066   4.174   1.155   9.761
40353SOL    HW223067   4.253   1.277   9.803
40354SOL     OW23068   2.050   4.874   5.323
40354SOL    HW123069   1.995   4.885   5.400
40354SOL    HW223070   2.122   4.818   5.352
40355SOL     OW23071   8.523  10.265   6.759
40355SOL    HW123072   8.572  10.308   6.828
40355SOL    HW223073   8.513  10.331   6.691
40356SOL     OW23074   9.017   7.415   9.073
40356SOL    HW123075   8.935   7.374   9.045
40356SOL    HW223076   9.065   7.429   8.991
40357SOL     OW23077   1.607   8.346   8.490
40357SOL    HW123078   1.573   8.266   8.448
40357SOL    HW223079   1.530   8.400   8.506
40358SOL     OW23080   2.240   1.944   4.308
40358SOL    HW123081   2.169   1.882   4.291
40358SOL    HW223082   2.252   1.941   4.403
40359SOL     OW23083   9.023   8.234   9.484
40359SOL    HW123084   9.066   8.296   9.543
40359SOL    HW223085   8.939   8.216   9.526
40360SOL     OW23086  10.595   1.066   1.313
40360SOL    HW123087  10.568   0.990   1.365
40360SOL    HW223088  10.514   1.097   1.272
40361SOL     OW23089   1.133   0.500   4.976
40361SOL    HW123090   1.164   0.432   5.035
40361SOL    HW223091   1.114   0.575   5.032
40362SOL     OW23092  10.455   7.892  10.099
40362SOL    HW123093  10.443   7.847  10.183
40362SOL    HW223094  10.415   7.833  10.034
40363SOL     OW23095  11.100   9.410   6.788
40363SOL    HW123096  11.072   9.472   6.855
40363SOL    HW223097  11.127   9.465   6.714
40364SOL     OW23098   0.366   6.089   0.295
40364SOL    HW123099   0.302   6.156   0.320
40364SOL    HW223100   0.396   6.115   0.208
40365SOL     OW23101   2.743   3.027   3.377
40365SOL    HW123102   2.695   3.105   3.402
40365SOL    HW223103   2.745   2.973   3.456
40366SOL     OW23104  10.189   7.081   4.304
40366SOL    HW123105  10.264   7.130   4.338
40366SOL    HW223106  10.116   7.142   4.310
40367SOL     OW23107   2.656   7.444   3.871
40367SOL    HW123108   2.606   7.493   3.806
40367SOL    HW223109   2.598   7.372   3.897
40368SOL     OW23110   0.537   6.078   9.832
40368SOL    HW123111   0.463   6.018   9.839
40368SOL    HW223112   0.598   6.049   9.900
40369SOL     OW23113   6.136   0.328   5.480
40369SOL    HW123114   6.048   0.290   5.478
40369SOL    HW223115   6.188   0.271   5.423
40370SOL     OW23116   8.781   8.184  10.174
40370SOL    HW123117   8.730   8.130  10.113
40370SOL    HW223118   8.744   8.271  10.166
40371SOL     OW23119  10.401   6.028   6.350
40371SOL    HW123120  10.372   6.118   6.359
40371SOL    HW223121  10.495   6.031   6.368
40372SOL     OW23122   6.576   2.388   5.624
40372SOL    HW123123   6.609   2.454   5.563
40372SOL    HW223124   6.536   2.438   5.694
40373SOL     OW23125   6.436  10.236   3.930
40373SOL    HW123126   6.448  10.141   3.922
40373SOL    HW223127   6.512  10.273   3.884
40374SOL     OW23128   2.805   5.228   2.447
40374SOL    HW123129   2.752   5.190   2.517
40374SOL    HW223130   2.865   5.287   2.492
40375SOL     OW23131   5.467   7.283   7.151
40375SOL    HW123132   5.509   7.219   7.094
40375SOL    HW223133   5.376   7.286   7.120
40376SOL     OW23134  10.633   2.312   7.466
40376SOL    HW123135  10.677   2.259   7.532
40376SOL    HW223136  10.685   2.392   7.460
40377SOL     OW23137   5.451   3.618   5.305
40377SOL    HW123138   5.429   3.554   5.372
40377SOL    HW223139   5.471   3.698   5.353
40378SOL     OW23140   2.053   1.472   3.453
40378SOL    HW123141   2.118   1.504   3.390
40378SOL    HW223142   2.059   1.532   3.527
40379SOL     OW23143   4.748   4.527   2.317
40379SOL    HW123144   4.673   4.490   2.271
40379SOL    HW223145   4.777   4.457   2.376
40380SOL     OW23146   1.310   4.135   9.493
40380SOL    HW123147   1.333   4.044   9.472
40380SOL    HW223148   1.214   4.136   9.491
40381SOL     OW23149   5.147  10.358   0.694
40381SOL    HW123150   5.167  10.267   0.672
40381SOL    HW223151   5.149  10.403   0.610
40382SOL     OW23152   4.100   5.113   2.233
40382SOL    HW123153   4.166   5.075   2.292
40382SOL    HW223154   4.065   5.037   2.185
40383SOL     OW23155  10.803   4.203   0.310
40383SOL    HW123156  10.886   4.250   0.303
40383SOL    HW223157  10.829   4.112   0.324
40384SOL     OW23158   8.064   5.498   8.196
40384SOL    HW123159   8.115   5.568   8.155
40384SOL    HW223160   8.073   5.423   8.136
40385SOL     OW23161   7.804  10.751   3.272
40385SOL    HW123162   7.900  10.750   3.274
40385SOL    HW223163   7.781  10.841   3.294
40386SOL     OW23164   8.636   5.042   4.884
40386SOL    HW123165   8.703   4.993   4.932
40386SOL    HW223166   8.582   4.975   4.842
40387SOL     OW23167   4.096   2.158   6.094
40387SOL    HW123168   4.030   2.226   6.105
40387SOL    HW223169   4.180   2.203   6.104
40388SOL     OW23170   3.660   8.089   2.554
40388SOL    HW123171   3.591   8.022   2.552
40388SOL    HW223172   3.618   8.168   2.521
40389SOL     OW23173   8.341   0.153   6.970
40389SOL    HW123174   8.369   0.103   7.046
40389SOL    HW223175   8.258   0.112   6.944
40390SOL     OW23176   1.403   6.338   6.497
40390SOL    HW123177   1.456   6.312   6.421
40390SOL    HW223178   1.417   6.268   6.561
40391SOL     OW23179   8.892   8.432   3.805
40391SOL    HW123180   8.870   8.349   3.763
40391SOL    HW223181   8.932   8.484   3.735
40392SOL     OW23182   8.974   2.317   6.661
40392SOL    HW123183   9.029   2.393   6.642
40392SOL    HW223184   9.035   2.252   6.696
40393SOL     OW23185   1.811   2.379   9.974
40393SOL    HW123186   1.898   2.407  10.001
40393SOL    HW223187   1.754   2.402  10.047
40394SOL     OW23188   0.702   0.596  10.201
40394SOL    HW123189   0.716   0.685  10.170
40394SOL    HW223190   0.745   0.541  10.135
40395SOL     OW23191   0.254   3.204   5.797
40395SOL    HW123192   0.238   3.130   5.738
40395SOL    HW223193   0.323   3.173   5.856
40396SOL     OW23194   9.390   5.215   5.470
40396SOL    HW123195   9.407   5.308   5.481
40396SOL    HW223196   9.309   5.199   5.518
40397SOL     OW23197  10.643   6.930   7.677
40397SOL    HW123198  10.645   6.929   7.581
40397SOL    HW223199  10.601   6.847   7.700
40398SOL     OW23200   5.812   6.891   6.108
40398SOL    HW123201   5.894   6.849   6.133
40398SOL    HW223202   5.838   6.965   6.053
40399SOL     OW23203   2.769   2.775   1.518
40399SOL    HW123204   2.694   2.800   1.464
40399SOL    HW223205   2.831   2.847   1.507
40400SOL     OW23206   3.170   5.907   9.408
40400SOL    HW123207   3.106   5.962   9.363
40400SOL    HW223208   3.127   5.822   9.417
40401SOL     OW23209   7.603   8.964   8.880
40401SOL    HW123210   7.640   8.948   8.793
40401SOL    HW223211   7.508   8.958   8.867
40402SOL     OW23212   4.160   8.379   3.555
40402SOL    HW123213   4.127   8.295   3.589
40402SOL    HW223214   4.239   8.355   3.507
40403SOL     OW23215   4.323   5.345   1.862
40403SOL    HW123216   4.267   5.342   1.939
40403SOL    HW223217   4.278   5.403   1.801
40404SOL     OW23218   9.878   6.275   8.547
40404SOL    HW123219   9.808   6.245   8.489
40404SOL    HW223220   9.837   6.286   8.632
40405SOL     OW23221   9.187   5.585   3.044
40405SOL    HW123222   9.276   5.585   3.080
40405SOL    HW223223   9.130   5.570   3.119
40406SOL     OW23224   2.932   6.108   0.938
40406SOL    HW123225   3.012   6.092   0.887
40406SOL    HW223226   2.894   6.021   0.952
40407SOL     OW23227   8.245   6.415   9.961
40407SOL    HW123228   8.201   6.332   9.982
40407SOL    HW223229   8.178   6.482   9.975
40408SOL     OW23230   4.015   4.401   3.601
40408SOL    HW123231   4.079   4.330   3.589
40408SOL    HW223232   3.959   4.370   3.672
40409SOL     OW23233   8.381   2.656   5.121
40409SOL    HW123234   8.290   2.674   5.145
40409SOL    HW223235   8.394   2.703   5.038
40410SOL     OW23236   5.810   2.617   6.280
40410SOL    HW123237   5.788   2.703   6.244
40410SOL    HW223238   5.759   2.555   6.228
40411SOL     OW23239   7.721   8.389   4.124
40411SOL    HW123240   7.792   8.404   4.187
40411SOL    HW223241   7.761   8.407   4.038
40412SOL     OW23242   0.744   5.181   6.870
40412SOL    HW123243   0.814   5.132   6.914
40412SOL    HW223244   0.675   5.116   6.856
40413SOL     OW23245   2.230   3.131   4.982
40413SOL    HW123246   2.301   3.159   5.040
40413SOL    HW223247   2.263   3.149   4.894
40414SOL     OW23248   8.271   6.470   4.553
40414SOL    HW123249   8.287   6.377   4.568
40414SOL    HW223250   8.291   6.483   4.460
40415SOL     OW23251   3.113   8.615   8.862
40415SOL    HW123252   3.076   8.594   8.947
40415SOL    HW223253   3.198   8.655   8.881
40416SOL     OW23254   1.982   9.892   6.035
40416SOL    HW123255   1.898   9.936   6.049
40416SOL    HW223256   2.023   9.940   5.963
40417SOL     OW23257   9.508   5.594   0.728
40417SOL    HW123258   9.581   5.538   0.702
40417SOL    HW223259   9.516   5.671   0.672
40418SOL     OW23260   8.680   6.991   4.042
40418SOL    HW123261   8.614   6.922   4.046
40418SOL    HW223262   8.663   7.046   4.118
40419SOL     OW23263   2.846  10.783   5.864
40419SOL    HW123264   2.842  10.801   5.958
40419SOL    HW223265   2.922  10.834   5.833
40420SOL     OW23266   4.691   4.806   9.105
40420SOL    HW123267   4.714   4.767   9.189
40420SOL    HW223268   4.626   4.746   9.068
40421SOL     OW23269   8.643   1.709   2.566
40421SOL    HW123270   8.673   1.759   2.490
40421SOL    HW223271   8.573   1.761   2.603
40422SOL     OW23272   4.994   3.964   9.222
40422SOL    HW123273   5.001   3.944   9.128
40422SOL    HW223274   5.015   4.057   9.228
40423SOL     OW23275   1.290   5.463   7.519
40423SOL    HW123276   1.334   5.546   7.503
40423SOL    HW223277   1.198   5.480   7.499
40424SOL     OW23278   2.754   5.999   1.605
40424SOL    HW123279   2.820   5.951   1.555
40424SOL    HW223280   2.752   6.086   1.565
40425SOL     OW23281   7.599   9.377   6.801
40425SOL    HW123282   7.599   9.323   6.880
40425SOL    HW223283   7.539   9.332   6.741
40426SOL     OW23284   2.769  10.534   2.332
40426SOL    HW123285   2.852  10.505   2.371
40426SOL    HW223286   2.795  10.595   2.263
40427SOL     OW23287   3.182   3.218   1.286
40427SOL    HW123288   3.157   3.280   1.354
40427SOL    HW223289   3.275   3.202   1.300
40428SOL     OW23290   0.824   7.226   4.357
40428SOL    HW123291   0.898   7.172   4.386
40428SOL    HW223292   0.788   7.178   4.282
40429SOL     OW23293   9.987   5.579   6.469
40429SOL    HW123294  10.082   5.574   6.484
40429SOL    HW223295   9.975   5.658   6.417
40430SOL     OW23296   1.645   0.716   5.289
40430SOL    HW123297   1.679   0.694   5.375
40430SOL    HW223298   1.595   0.638   5.263
40431SOL     OW23299   3.218   1.919   6.701
40431SOL    HW123300   3.154   1.970   6.651
40431SOL    HW223301   3.231   1.968   6.782
40432SOL     OW23302   5.630  10.016   6.720
40432SOL    HW123303   5.699  10.026   6.654
40432SOL    HW223304   5.617   9.921   6.726
40433SOL     OW23305   6.456   7.738   1.680
40433SOL    HW123306   6.518   7.669   1.703
40433SOL    HW223307   6.405   7.701   1.607
40434SOL     OW23308   2.539   3.938   4.855
40434SOL    HW123309   2.633   3.928   4.841
40434SOL    HW223310   2.515   4.016   4.805
40435SOL     OW23311   9.368   9.989   4.418
40435SOL    HW123312   9.336   9.975   4.329
40435SOL    HW223313   9.450  10.037   4.406
40436SOL     OW23314   5.663   6.024   4.357
40436SOL    HW123315   5.711   5.949   4.320
40436SOL    HW223316   5.621   5.989   4.436
40437SOL     OW23317   3.744   6.154   3.939
40437SOL    HW123318   3.696   6.136   3.858
40437SOL    HW223319   3.800   6.077   3.951
40438SOL     OW23320  10.025   6.064   9.310
40438SOL    HW123321   9.984   6.003   9.248
40438SOL    HW223322   9.960   6.074   9.379
40439SOL     OW23323   6.753   9.137   5.177
40439SOL    HW123324   6.723   9.111   5.089
40439SOL    HW223325   6.840   9.098   5.185
40440SOL     OW23326   7.870   7.942  10.104
40440SOL    HW123327   7.870   7.992  10.022
40440SOL    HW223328   7.945   7.976  10.153
40441SOL     OW23329   8.375   7.648   4.432
40441SOL    HW123330   8.408   7.589   4.500
40441SOL    HW223331   8.298   7.603   4.397
40442SOL     OW23332   5.440   3.307   5.157
40442SOL    HW123333   5.369   3.256   5.195
40442SOL    HW223334   5.515   3.290   5.214
40443SOL     OW23335   6.013   6.274   1.278
40443SOL    HW123336   5.965   6.349   1.242
40443SOL    HW223337   5.992   6.202   1.218
40444SOL     OW23338   9.032   7.922   7.262
40444SOL    HW123339   9.094   7.888   7.327
40444SOL    HW223340   9.086   7.942   7.185
40445SOL     OW23341   2.193   8.358   7.247
40445SOL    HW123342   2.134   8.323   7.314
40445SOL    HW223343   2.276   8.372   7.293
40446SOL     OW23344   8.154   6.884   8.182
40446SOL    HW123345   8.184   6.938   8.109
40446SOL    HW223346   8.227   6.885   8.244
40447SOL     OW23347  10.327   3.415  10.945
40447SOL    HW123348  10.398   3.473  10.917
40447SOL    HW223349  10.276   3.400  10.865
40448SOL     OW23350   8.129   4.692  10.641
40448SOL    HW123351   8.064   4.756  10.612
40448SOL    HW223352   8.198   4.697  10.575
40449SOL     OW23353   4.750   1.793   1.287
40449SOL    HW123354   4.727   1.787   1.194
40449SOL    HW223355   4.667   1.782   1.333
40450SOL     OW23356   4.173   5.503   3.754
40450SOL    HW123357   4.244   5.515   3.817
40450SOL    HW223358   4.100   5.553   3.790
40451SOL     OW23359   8.415   4.107   8.625
40451SOL    HW123360   8.350   4.089   8.556
40451SOL    HW223361   8.398   4.041   8.692
40452SOL     OW23362   8.272   6.724   3.158
40452SOL    HW123363   8.235   6.746   3.243
40452SOL    HW223364   8.254   6.800   3.103
40453SOL     OW23365   5.697   7.407   6.128
40453SOL    HW123366   5.696   7.476   6.062
40453SOL    HW223367   5.789   7.382   6.135
40454SOL     OW23368   5.551   7.965  10.277
40454SOL    HW123369   5.567   8.051  10.315
40454SOL    HW223370   5.570   7.976  10.184
40455SOL     OW23371   1.833  10.106   9.019
40455SOL    HW123372   1.911  10.069   9.060
40455SOL    HW223373   1.783  10.144   9.091
40456SOL     OW23374  10.588   7.203   1.940
40456SOL    HW123375  10.649   7.198   2.013
40456SOL    HW223376  10.626   7.269   1.882
40457SOL     OW23377   0.090   6.043   6.740
40457SOL    HW123378   0.086   6.138   6.736
40457SOL    HW223379  -0.002   6.015   6.744
40458SOL     OW23380   1.739   8.792   1.106
40458SOL    HW123381   1.660   8.794   1.052
40458SOL    HW223382   1.742   8.878   1.148
40459SOL     OW23383   0.751   1.246   5.166
40459SOL    HW123384   0.680   1.287   5.214
40459SOL    HW223385   0.817   1.228   5.232
40460SOL     OW23386   4.617   9.767   2.033
40460SOL    HW123387   4.638   9.697   1.971
40460SOL    HW223388   4.592   9.721   2.113
40461SOL     OW23389   3.515   3.297   0.441
40461SOL    HW123390   3.558   3.369   0.486
40461SOL    HW223391   3.480   3.336   0.361
40462SOL     OW23392   0.498   3.693   2.507
40462SOL    HW123393   0.559   3.623   2.484
40462SOL    HW223394   0.545   3.774   2.488
40463SOL     OW23395   0.263   0.208   1.434
40463SOL    HW123396   0.269   0.112   1.426
40463SOL    HW223397   0.347   0.234   1.470
40464SOL     OW23398   8.204   4.977   2.231
40464SOL    HW123399   8.265   5.028   2.178
40464SOL    HW223400   8.143   5.041   2.267
40465SOL     OW23401   8.669   0.754   7.248
40465SOL    HW123402   8.622   0.717   7.173
40465SOL    HW223403   8.658   0.848   7.239
40466SOL     OW23404   3.668   1.739   8.807
40466SOL    HW123405   3.732   1.668   8.816
40466SOL    HW223406   3.583   1.694   8.806
40467SOL     OW23407   9.019   7.410   0.258
40467SOL    HW123408   9.025   7.402   0.353
40467SOL    HW223409   8.946   7.469   0.242
40468SOL     OW23410   7.360   8.026   9.073
40468SOL    HW123411   7.294   7.988   9.015
40468SOL    HW223412   7.352   7.976   9.154
40469SOL     OW23413   1.907   4.617   6.888
40469SOL    HW123414   1.845   4.565   6.837
40469SOL    HW223415   1.902   4.580   6.976
40470SOL     OW23416   9.125   4.482   4.784
40470SOL    HW123417   9.209   4.435   4.778
40470SOL    HW223418   9.084   4.468   4.698
40471SOL     OW23419   2.001   6.883   7.060
40471SOL    HW123420   2.084   6.899   7.015
40471SOL    HW223421   1.967   6.970   7.080
40472SOL     OW23422   3.168   6.472   1.920
40472SOL    HW123423   3.249   6.422   1.931
40472SOL    HW223424   3.188   6.533   1.849
40473SOL     OW23425  10.402   7.553   5.781
40473SOL    HW123426  10.388   7.522   5.691
40473SOL    HW223427  10.481   7.506   5.810
40474SOL     OW23428   2.849   5.693   7.425
40474SOL    HW123429   2.825   5.782   7.449
40474SOL    HW223430   2.905   5.703   7.348
40475SOL     OW23431   6.684   4.221   8.511
40475SOL    HW123432   6.630   4.182   8.579
40475SOL    HW223433   6.765   4.246   8.556
40476SOL     OW23434   1.342   0.701   0.594
40476SOL    HW123435   1.414   0.644   0.622
40476SOL    HW223436   1.308   0.738   0.675
40477SOL     OW23437   6.070   8.569   1.421
40477SOL    HW123438   6.034   8.654   1.445
40477SOL    HW223439   5.993   8.516   1.399
40478SOL     OW23440   6.158   0.751   5.653
40478SOL    HW123441   6.167   0.845   5.641
40478SOL    HW223442   6.083   0.727   5.599
40479SOL     OW23443   0.384   3.498  10.839
40479SOL    HW123444   0.376   3.575  10.783
40479SOL    HW223445   0.294   3.478  10.865
40480SOL     OW23446  10.776   1.808   4.605
40480SOL    HW123447  10.837   1.738   4.579
40480SOL    HW223448  10.707   1.763   4.654
40481SOL     OW23449   0.623   5.212   8.533
40481SOL    HW123450   0.612   5.289   8.477
40481SOL    HW223451   0.647   5.247   8.619
40482SOL     OW23452   0.997  10.876   5.328
40482SOL    HW123453   1.002  10.954   5.273
40482SOL    HW223454   0.995  10.803   5.266
40483SOL     OW23455   6.095  10.891   8.022
40483SOL    HW123456   6.189  10.903   8.038
40483SOL    HW223457   6.055  10.891   8.109
40484SOL     OW23458   4.159   6.371   8.279
40484SOL    HW123459   4.139   6.290   8.230
40484SOL    HW223460   4.241   6.402   8.240
40485SOL     OW23461   4.697   0.686   6.406
40485SOL    HW123462   4.648   0.606   6.425
40485SOL    HW223463   4.676   0.705   6.314
40486SOL     OW23464   8.519  10.302   4.318
40486SOL    HW123465   8.446  10.360   4.298
40486SOL    HW223466   8.509  10.228   4.257
40487SOL     OW23467   0.266   2.679   8.048
40487SOL    HW123468   0.295   2.768   8.030
40487SOL    HW223469   0.200   2.688   8.116
40488SOL     OW23470   9.507   4.908   9.989
40488SOL    HW123471   9.461   4.961  10.054
40488SOL    HW223472   9.532   4.828  10.036
40489SOL     OW23473   8.024  10.085   6.340
40489SOL    HW123474   7.965  10.018   6.305
40489SOL    HW223475   8.016  10.077   6.435
40490SOL     OW23476   0.139  10.554   4.141
40490SOL    HW123477   0.099  10.501   4.071
40490SOL    HW223478   0.084  10.537   4.218
40491SOL     OW23479   9.403   7.237   5.542
40491SOL    HW123480   9.426   7.155   5.587
40491SOL    HW223481   9.393   7.301   5.612
40492SOL     OW23482   0.035   4.157   7.812
40492SOL    HW123483   0.108   4.179   7.870
40492SOL    HW223484   0.015   4.065   7.832
40493SOL     OW23485   7.200   6.330   6.857
40493SOL    HW123486   7.216   6.239   6.832
40493SOL    HW223487   7.187   6.376   6.774
40494SOL     OW23488   2.415   5.617   0.039
40494SOL    HW123489   2.388   5.608   0.131
40494SOL    HW223490   2.352   5.564  -0.009
40495SOL     OW23491   8.849   6.220   6.956
40495SOL    HW123492   8.869   6.171   6.876
40495SOL    HW223493   8.794   6.292   6.926
40496SOL     OW23494   0.654  10.474   4.558
40496SOL    HW123495   0.679  10.520   4.478
40496SOL    HW223496   0.642  10.383   4.531
40497SOL     OW23497   0.902   6.714   4.329
40497SOL    HW123498   0.942   6.637   4.287
40497SOL    HW223499   0.941   6.716   4.416
40498SOL     OW23500   9.515   7.369   9.576
40498SOL    HW123501   9.462   7.412   9.508
40498SOL    HW223502   9.606   7.390   9.552
40499SOL     OW23503   6.659   5.950   3.550
40499SOL    HW123504   6.580   6.001   3.566
40499SOL    HW223505   6.731   6.011   3.565
40500SOL     OW23506   2.704   5.928   2.456
40500SOL    HW123507   2.760   5.876   2.398
40500SOL    HW223508   2.659   5.989   2.397
40501SOL     OW23509  10.874   3.745   5.205
40501SOL    HW123510  10.846   3.665   5.160
40501SOL    HW223511  10.908   3.800   5.135
40502SOL     OW23512   4.378   8.508   2.427
40502SOL    HW123513   4.451   8.568   2.415
40502SOL    HW223514   4.322   8.549   2.492
40503SOL     OW23515   6.282   2.588  10.907
40503SOL    HW123516   6.206   2.530  10.909
40503SOL    HW223517   6.343   2.550  10.970
40504SOL     OW23518   6.736   6.329   8.414
40504SOL    HW123519   6.662   6.387   8.398
40504SOL    HW223520   6.783   6.368   8.487
40505SOL     OW23521   0.147   3.717   4.912
40505SOL    HW123522   0.200   3.789   4.878
40505SOL    HW223523   0.144   3.731   5.006
40506SOL     OW23524   5.967   7.856   5.673
40506SOL    HW123525   5.875   7.883   5.666
40506SOL    HW223526   5.999   7.857   5.583
40507SOL     OW23527   1.689   4.081   5.738
40507SOL    HW123528   1.635   4.106   5.663
40507SOL    HW223529   1.724   4.163   5.771
40508SOL     OW23530   7.703   3.536   6.418
40508SOL    HW123531   7.668   3.541   6.329
40508SOL    HW223532   7.627   3.551   6.474
40509SOL     OW23533   4.795   1.018   5.273
40509SOL    HW123534   4.723   0.979   5.323
40509SOL    HW223535   4.829   1.087   5.330
40510SOL     OW23536   7.024   0.514   3.971
40510SOL    HW123537   7.098   0.515   4.032
40510SOL    HW223538   7.001   0.606   3.959
40511SOL     OW23539   0.783   3.801   9.172
40511SOL    HW123540   0.838   3.763   9.103
40511SOL    HW223541   0.822   3.769   9.253
40512SOL     OW23542   5.000   5.045   1.172
40512SOL    HW123543   5.061   5.082   1.235
40512SOL    HW223544   5.024   4.952   1.167
40513SOL     OW23545   4.466   9.522   8.465
40513SOL    HW123546   4.509   9.503   8.548
40513SOL    HW223547   4.380   9.480   8.472
40514SOL     OW23548   7.231   5.384   9.770
40514SOL    HW123549   7.136   5.372   9.763
40514SOL    HW223550   7.263   5.374   9.680
40515SOL     OW23551   2.835   1.212   1.495
40515SOL    HW123552   2.769   1.261   1.446
40515SOL    HW223553   2.790   1.131   1.521
40516SOL     OW23554   2.493   2.957   4.183
40516SOL    HW123555   2.522   2.900   4.254
40516SOL    HW223556   2.543   2.927   4.106
40517SOL     OW23557   6.446   5.337   5.778
40517SOL    HW123558   6.416   5.289   5.700
40517SOL    HW223559   6.428   5.428   5.758
40518SOL     OW23560   9.049   1.425   4.294
40518SOL    HW123561   9.015   1.420   4.204
40518SOL    HW223562   9.097   1.343   4.306
40519SOL     OW23563   5.113   2.614   6.777
40519SOL    HW123564   5.181   2.680   6.793
40519SOL    HW223565   5.162   2.535   6.751
40520SOL     OW23566   1.512   8.424   0.170
40520SOL    HW123567   1.434   8.448   0.220
40520SOL    HW223568   1.543   8.506   0.133
40521SOL     OW23569   1.181   3.185   5.121
40521SOL    HW123570   1.103   3.172   5.067
40521SOL    HW223571   1.166   3.131   5.198
40522SOL     OW23572   1.074   4.199  10.553
40522SOL    HW123573   1.164   4.194  10.586
40522SOL    HW223574   1.051   4.108  10.534
40523SOL     OW23575   9.874  10.155   4.630
40523SOL    HW123576   9.920  10.233   4.660
40523SOL    HW223577   9.813  10.133   4.700
40524SOL     OW23578  10.466   3.524   9.637
40524SOL    HW123579  10.428   3.594   9.584
40524SOL    HW223580  10.396   3.460   9.647
40525SOL     OW23581   9.359   6.929   8.260
40525SOL    HW123582   9.451   6.901   8.266
40525SOL    HW223583   9.312   6.850   8.232
40526SOL     OW23584  10.486   7.629   8.190
40526SOL    HW123585  10.482   7.549   8.136
40526SOL    HW223586  10.531   7.693   8.135
40527SOL     OW23587  10.386   1.088   5.225
40527SOL    HW123588  10.450   1.040   5.172
40527SOL    HW223589  10.329   1.020   5.261
40528SOL     OW23590   5.746   8.176   6.218
40528SOL    HW123591   5.755   8.270   6.227
40528SOL    HW223592   5.655   8.163   6.192
40529SOL     OW23593   2.115   5.876  10.245
40529SOL    HW123594   2.128   5.813  10.174
40529SOL    HW223595   2.166   5.952  10.218
40530SOL     OW23596   6.564   9.118  10.431
40530SOL    HW123597   6.588   9.063  10.356
40530SOL    HW223598   6.633   9.184  10.434
40531SOL     OW23599   8.642   3.205   8.149
40531SOL    HW123600   8.552   3.225   8.125
40531SOL    HW223601   8.649   3.231   8.241
40532SOL     OW23602   7.173   7.757   1.616
40532SOL    HW123603   7.099   7.807   1.581
40532SOL    HW223604   7.141   7.667   1.621
40533SOL     OW23605   6.526   3.259   3.423
40533SOL    HW123606   6.440   3.281   3.459
40533SOL    HW223607   6.536   3.165   3.440
40534SOL     OW23608   9.628   4.867   9.224
40534SOL    HW123609   9.597   4.957   9.235
40534SOL    HW223610   9.574   4.815   9.284
40535SOL     OW23611   9.352   7.810   3.847
40535SOL    HW123612   9.429   7.867   3.846
40535SOL    HW223613   9.282   7.863   3.809
40536SOL     OW23614   7.880   5.958   5.396
40536SOL    HW123615   7.933   5.930   5.470
40536SOL    HW223616   7.869   6.052   5.408
40537SOL     OW23617   5.107   1.654   8.513
40537SOL    HW123618   5.203   1.655   8.513
40537SOL    HW223619   5.084   1.568   8.549
40538SOL     OW23620   8.825   9.197   6.505
40538SOL    HW123621   8.874   9.115   6.494
40538SOL    HW223622   8.799   9.197   6.597
40539SOL     OW23623   8.790   8.045   6.195
40539SOL    HW123624   8.700   8.032   6.224
40539SOL    HW223625   8.788   8.025   6.101
40540SOL     OW23626   7.882   5.594  10.457
40540SOL    HW123627   7.881   5.653  10.382
40540SOL    HW223628   7.840   5.514  10.425
40541SOL     OW23629   2.423   1.550  11.055
40541SOL    HW123630   2.328   1.536  11.057
40541SOL    HW223631   2.447   1.535  10.963
40542SOL     OW23632  10.615   1.285   9.746
40542SOL    HW123633  10.566   1.309   9.824
40542SOL    HW223634  10.692   1.342   9.747
40543SOL     OW23635   8.897   3.055   7.026
40543SOL    HW123636   8.860   3.002   6.955
40543SOL    HW223637   8.938   3.129   6.981
40544SOL     OW23638  10.124   7.174   3.872
40544SOL    HW123639  10.190   7.128   3.924
40544SOL    HW223640  10.173   7.242   3.826
40545SOL     OW23641   0.433   7.182   5.080
40545SOL    HW123642   0.370   7.110   5.075
40545SOL    HW223643   0.393   7.252   5.028
40546SOL     OW23644   3.602   9.006   5.868
40546SOL    HW123645   3.652   9.080   5.901
40546SOL    HW223646   3.550   9.042   5.796
40547SOL     OW23647   1.140   7.177   8.849
40547SOL    HW123648   1.049   7.160   8.826
40547SOL    HW223649   1.145   7.272   8.861
40548SOL     OW23650   0.112   9.138   8.536
40548SOL    HW123651   0.198   9.178   8.536
40548SOL    HW223652   0.076   9.158   8.449
40549SOL     OW23653   1.341   6.721   9.138
40549SOL    HW123654   1.366   6.636   9.101
40549SOL    HW223655   1.294   6.699   9.218
40550SOL     OW23656   5.369   3.670   4.453
40550SOL    HW123657   5.389   3.732   4.522
40550SOL    HW223658   5.325   3.598   4.498
40551SOL     OW23659   0.041   6.066   2.804
40551SOL    HW123660   0.028   6.055   2.898
40551SOL    HW223661  -0.031   6.122   2.776
40552SOL     OW23662   4.185   7.048   8.015
40552SOL    HW123663   4.199   6.958   7.985
40552SOL    HW223664   4.249   7.100   7.966
40553SOL     OW23665   9.742   2.611  10.286
40553SOL    HW123666   9.827   2.599  10.243
40553SOL    HW223667   9.687   2.542  10.247
40554SOL     OW23668   0.921   9.082   5.294
40554SOL    HW123669   0.915   9.010   5.357
40554SOL    HW223670   0.951   9.040   5.213
40555SOL     OW23671   2.098   4.278   0.178
40555SOL    HW123672   2.042   4.202   0.160
40555SOL    HW223673   2.055   4.350   0.134
40556SOL     OW23674   1.001  10.267   7.327
40556SOL    HW123675   1.035  10.192   7.376
40556SOL    HW223676   1.054  10.341   7.356
40557SOL     OW23677   8.625   7.227   7.067
40557SOL    HW123678   8.580   7.142   7.062
40557SOL    HW223679   8.609   7.267   6.981
40558SOL     OW23680  10.827   5.403   5.644
40558SOL    HW123681  10.920   5.404   5.669
40558SOL    HW223682  10.780   5.399   5.727
40559SOL     OW23683   0.262   6.719   5.651
40559SOL    HW123684   0.258   6.792   5.589
40559SOL    HW223685   0.334   6.664   5.619
40560SOL     OW23686   3.465   9.441   3.999
40560SOL    HW123687   3.433   9.382   3.931
40560SOL    HW223688   3.560   9.434   3.992
40561SOL     OW23689   8.893   1.728   6.355
40561SOL    HW123690   8.865   1.653   6.302
40561SOL    HW223691   8.895   1.694   6.444
40562SOL     OW23692   1.930   4.076   8.321
40562SOL    HW123693   2.002   4.114   8.271
40562SOL    HW223694   1.943   4.108   8.410
40563SOL     OW23695  10.956   3.424   5.679
40563SOL    HW123696  10.906   3.503   5.663
40563SOL    HW223697  10.934   3.398   5.768
40564SOL     OW23698   0.429   9.001   9.318
40564SOL    HW123699   0.496   8.969   9.379
40564SOL    HW223700   0.424   9.095   9.334
40565SOL     OW23701   9.298   6.483   2.193
40565SOL    HW123702   9.226   6.435   2.151
40565SOL    HW223703   9.322   6.429   2.268
40566SOL     OW23704   1.117   8.200   5.235
40566SOL    HW123705   1.137   8.141   5.162
40566SOL    HW223706   1.144   8.286   5.204
40567SOL     OW23707  10.125   0.474   2.881
40567SOL    HW123708  10.144   0.546   2.940
40567SOL    HW223709  10.133   0.511   2.793
40568SOL     OW23710   0.357   5.156   6.890
40568SOL    HW123711   0.315   5.126   6.971
40568SOL    HW223712   0.286   5.157   6.825
40569SOL     OW23713   8.472   0.776   1.606
40569SOL    HW123714   8.465   0.815   1.693
40569SOL    HW223715   8.486   0.682   1.622
40570SOL     OW23716   4.894   5.463   7.775
40570SOL    HW123717   4.862   5.373   7.785
40570SOL    HW223718   4.950   5.459   7.697
40571SOL     OW23719   1.726   1.582   5.767
40571SOL    HW123720   1.716   1.493   5.802
40571SOL    HW223721   1.820   1.592   5.753
40572SOL     OW23722   4.854   1.118  10.580
40572SOL    HW123723   4.876   1.030  10.547
40572SOL    HW223724   4.878   1.177  10.508
40573SOL     OW23725   0.388   4.719   2.325
40573SOL    HW123726   0.423   4.728   2.413
40573SOL    HW223727   0.320   4.786   2.318
40574SOL     OW23728   8.580   3.669  10.141
40574SOL    HW123729   8.549   3.635  10.225
40574SOL    HW223730   8.557   3.762  10.143
40575SOL     OW23731   4.292   5.590   8.816
40575SOL    HW123732   4.214   5.615   8.866
40575SOL    HW223733   4.265   5.596   8.724
40576SOL     OW23734   1.124   1.208   3.943
40576SOL    HW123735   1.163   1.249   3.866
40576SOL    HW223736   1.196   1.202   4.006
40577SOL     OW23737   2.237   6.472   6.154
40577SOL    HW123738   2.192   6.508   6.230
40577SOL    HW223739   2.187   6.504   6.079
40578SOL     OW23740   9.570   8.890   4.181
40578SOL    HW123741   9.636   8.832   4.142
40578SOL    HW223742   9.527   8.931   4.105
40579SOL     OW23743  10.107   3.957   8.066
40579SOL    HW123744  10.174   3.915   8.121
40579SOL    HW223745  10.157   4.005   8.000
40580SOL     OW23746   9.220   3.309   5.326
40580SOL    HW123747   9.285   3.261   5.274
40580SOL    HW223748   9.198   3.385   5.272
40581SOL     OW23749   2.412   7.936   6.229
40581SOL    HW123750   2.507   7.945   6.226
40581SOL    HW223751   2.379   8.012   6.181
40582SOL     OW23752   9.721   0.127   7.890
40582SOL    HW123753   9.678   0.187   7.829
40582SOL    HW223754   9.814   0.136   7.871
40583SOL     OW23755   6.972   7.316   4.626
40583SOL    HW123756   6.902   7.260   4.659
40583SOL    HW223757   6.927   7.390   4.586
40584SOL     OW23758   1.465  10.461   6.343
40584SOL    HW123759   1.403  10.396   6.376
40584SOL    HW223760   1.433  10.483   6.255
40585SOL     OW23761   2.740   3.800   5.185
40585SOL    HW123762   2.752   3.712   5.148
40585SOL    HW223763   2.820   3.817   5.235
40586SOL     OW23764  10.242   8.127   2.679
40586SOL    HW123765  10.294   8.096   2.604
40586SOL    HW223766  10.155   8.143   2.642
40587SOL     OW23767   3.757   5.601   0.999
40587SOL    HW123768   3.824   5.605   1.067
40587SOL    HW223769   3.728   5.509   0.999
40588SOL     OW23770   2.761   6.267   6.739
40588SOL    HW123771   2.705   6.297   6.810
40588SOL    HW223772   2.840   6.321   6.746
40589SOL     OW23773   7.349   3.355   5.495
40589SOL    HW123774   7.371   3.440   5.533
40589SOL    HW223775   7.342   3.371   5.401
40590SOL     OW23776   1.763  10.647   0.125
40590SOL    HW123777   1.851  10.684   0.124
40590SOL    HW223778   1.772  10.561   0.085
40591SOL     OW23779   7.903   2.606   6.675
40591SOL    HW123780   7.869   2.560   6.598
40591SOL    HW223781   7.873   2.553   6.749
40592SOL     OW23782  10.671   5.322   5.900
40592SOL    HW123783  10.593   5.309   5.846
40592SOL    HW223784  10.737   5.266   5.859
40593SOL     OW23785   0.384   5.638   7.962
40593SOL    HW123786   0.360   5.699   8.032
40593SOL    HW223787   0.318   5.653   7.893
40594SOL     OW23788   9.449   5.478   4.764
40594SOL    HW123789   9.459   5.410   4.831
40594SOL    HW223790   9.372   5.451   4.714
40595SOL     OW23791   2.433   0.361   2.018
40595SOL    HW123792   2.508   0.399   1.972
40595SOL    HW223793   2.357   0.388   1.966
40596SOL     OW23794  10.855   4.901   5.825
40596SOL    HW123795  10.766   4.892   5.857
40596SOL    HW223796  10.911   4.884   5.901
40597SOL     OW23797   7.229   0.605   5.532
40597SOL    HW123798   7.225   0.625   5.438
40597SOL    HW223799   7.322   0.606   5.553
40598SOL     OW23800   3.874   4.858  10.814
40598SOL    HW123801   3.818   4.805  10.870
40598SOL    HW223802   3.835   4.850  10.727
40599SOL     OW23803   4.734   2.103   8.928
40599SOL    HW123804   4.812   2.049   8.939
40599SOL    HW223805   4.679   2.081   9.003
40600SOL     OW23806   9.768   1.573   9.573
40600SOL    HW123807   9.680   1.547   9.545
40600SOL    HW223808   9.822   1.496   9.556
40601SOL     OW23809   8.785   5.005   9.614
40601SOL    HW123810   8.784   5.050   9.698
40601SOL    HW223811   8.877   4.984   9.599
40602SOL     OW23812  10.392   1.330   9.326
40602SOL    HW123813  10.420   1.412   9.286
40602SOL    HW223814  10.474   1.287   9.351
40603SOL     OW23815   9.999   8.678   5.226
40603SOL    HW123816   9.911   8.686   5.188
40603SOL    HW223817  10.058   8.683   5.150
40604SOL     OW23818   8.790   3.349   0.187
40604SOL    HW123819   8.786   3.402   0.266
40604SOL    HW223820   8.784   3.411   0.115
40605SOL     OW23821   9.462   1.759   5.657
40605SOL    HW123822   9.432   1.848   5.675
40605SOL    HW223823   9.392   1.720   5.605
40606SOL     OW23824   0.644   5.088   9.791
40606SOL    HW123825   0.695   5.045   9.721
40606SOL    HW223826   0.709   5.138   9.841
40607SOL     OW23827   2.254   1.651   8.491
40607SOL    HW123828   2.214   1.611   8.414
40607SOL    HW223829   2.187   1.711   8.524
40608SOL     OW23830   1.552   6.881   5.061
40608SOL    HW123831   1.475   6.864   5.115
40608SOL    HW223832   1.625   6.879   5.122
40609SOL     OW23833   0.315   9.499   7.593
40609SOL    HW123834   0.371   9.434   7.550
40609SOL    HW223835   0.263   9.537   7.522
40610SOL     OW23836   7.772   8.259   1.377
40610SOL    HW123837   7.741   8.274   1.466
40610SOL    HW223838   7.818   8.339   1.353
40611SOL     OW23839   9.593   5.600   8.493
40611SOL    HW123840   9.519   5.542   8.474
40611SOL    HW223841   9.655   5.583   8.422
40612SOL     OW23842   2.424   8.402   4.485
40612SOL    HW123843   2.341   8.359   4.465
40612SOL    HW223844   2.450   8.443   4.402
40613SOL     OW23845   4.118   8.885   4.997
40613SOL    HW123846   4.089   8.825   4.928
40613SOL    HW223847   4.083   8.847   5.077
40614SOL     OW23848   8.318  10.850   0.263
40614SOL    HW123849   8.368  10.889   0.191
40614SOL    HW223850   8.347  10.898   0.340
40615SOL     OW23851  10.160   6.895   2.789
40615SOL    HW123852  10.201   6.964   2.737
40615SOL    HW223853  10.068   6.896   2.762
40616SOL     OW23854   5.918   9.853   8.907
40616SOL    HW123855   5.873   9.769   8.920
40616SOL    HW223856   5.866   9.897   8.840
40617SOL     OW23857  10.294   6.966   9.752
40617SOL    HW123858  10.204   6.949   9.779
40617SOL    HW223859  10.344   6.968   9.833
40618SOL     OW23860   7.140   4.528   2.370
40618SOL    HW123861   7.062   4.571   2.335
40618SOL    HW223862   7.111   4.486   2.451
40619SOL     OW23863   8.912   0.388   7.510
40619SOL    HW123864   8.916   0.416   7.418
40619SOL    HW223865   8.832   0.427   7.544
40620SOL     OW23866   9.796   3.392   8.714
40620SOL    HW123867   9.863   3.330   8.743
40620SOL    HW223868   9.745   3.411   8.792
40621SOL     OW23869   1.779   6.537   6.102
40621SOL    HW123870   1.756   6.448   6.075
40621SOL    HW223871   1.777   6.588   6.021
40622SOL     OW23872   7.723   0.566   6.121
40622SOL    HW123873   7.643   0.532   6.162
40622SOL    HW223874   7.692   0.620   6.048
40623SOL     OW23875   3.898   4.185   0.161
40623SOL    HW123876   3.869   4.273   0.185
40623SOL    HW223877   3.845   4.162   0.085
40624SOL     OW23878   8.352   1.711   9.471
40624SOL    HW123879   8.275   1.757   9.438
40624SOL    HW223880   8.374   1.649   9.401
40625SOL     OW23881   2.592   3.340  10.935
40625SOL    HW123882   2.566   3.290  11.012
40625SOL    HW223883   2.646   3.279  10.884
40626SOL     OW23884   4.482   0.384   5.691
40626SOL    HW123885   4.392   0.412   5.676
40626SOL    HW223886   4.501   0.411   5.780
40627SOL     OW23887  10.721   4.754   6.145
40627SOL    HW123888  10.738   4.846   6.125
40627SOL    HW223889  10.768   4.705   6.077
40628SOL     OW23890  10.255   3.229   8.016
40628SOL    HW123891  10.328   3.287   7.995
40628SOL    HW223892  10.203   3.278   8.080
40629SOL     OW23893   2.809   6.065   9.127
40629SOL    HW123894   2.835   6.156   9.114
40629SOL    HW223895   2.720   6.070   9.161
40630SOL     OW23896   0.095   5.741   9.596
40630SOL    HW123897   0.033   5.673   9.569
40630SOL    HW223898   0.080   5.812   9.533
40631SOL     OW23899   1.935   6.541   6.344
40631SOL    HW123900   1.889   6.513   6.264
40631SOL    HW223901   1.954   6.633   6.329
40632SOL     OW23902   3.526   6.874   1.811
40632SOL    HW123903   3.440   6.916   1.804
40632SOL    HW223904   3.513   6.787   1.773
40633SOL     OW23905   0.141   8.963   0.165
40633SOL    HW123906   0.167   9.049   0.133
40633SOL    HW223907   0.107   8.918   0.088
40634SOL     OW23908  10.975   2.995   8.943
40634SOL    HW123909  10.949   3.085   8.959
40634SOL    HW223910  11.018   2.997   8.857
40635SOL     OW23911  10.357   5.000   9.680
40635SOL    HW123912  10.322   4.919   9.717
40635SOL    HW223913  10.440   4.973   9.640
40636SOL     OW23914   5.727   8.711  10.039
40636SOL    HW123915   5.752   8.621  10.060
40636SOL    HW223916   5.797   8.743   9.982
40637SOL     OW23917   5.542   6.674   7.516
40637SOL    HW123918   5.463   6.657   7.567
40637SOL    HW223919   5.542   6.768   7.501
40638SOL     OW23920   0.770   8.257   7.538
40638SOL    HW123921   0.861   8.231   7.550
40638SOL    HW223922   0.773   8.326   7.472
40639SOL     OW23923   7.499   2.244   4.725
40639SOL    HW123924   7.461   2.327   4.697
40639SOL    HW223925   7.578   2.269   4.773
40640SOL     OW23926   3.976   0.733   4.068
40640SOL    HW123927   3.976   0.644   4.033
40640SOL    HW223928   3.897   0.773   4.032
40641SOL     OW23929   6.786  10.977  10.834
40641SOL    HW123930   6.780  10.890  10.794
40641SOL    HW223931   6.877  10.983  10.864
40642SOL     OW23932   0.667   2.224   7.343
40642SOL    HW123933   0.658   2.146   7.398
40642SOL    HW223934   0.708   2.191   7.262
40643SOL     OW23935   5.066   8.509  10.545
40643SOL    HW123936   4.995   8.501  10.608
40643SOL    HW223937   5.106   8.594  10.563
40644SOL     OW23938   8.647   5.362   7.947
40644SOL    HW123939   8.622   5.350   8.038
40644SOL    HW223940   8.713   5.294   7.931
40645SOL     OW23941   1.980   8.004   5.430
40645SOL    HW123942   1.926   7.938   5.473
40645SOL    HW223943   1.954   8.086   5.470
40646SOL     OW23944  10.362  10.118   0.441
40646SOL    HW123945  10.312  10.105   0.521
40646SOL    HW223946  10.440  10.166   0.469
40647SOL     OW23947   9.067   5.259   2.182
40647SOL    HW123948   8.993   5.319   2.189
40647SOL    HW223949   9.142   5.314   2.160
40648SOL     OW23950   2.069   7.998   6.198
40648SOL    HW123951   1.994   7.939   6.209
40648SOL    HW223952   2.106   7.972   6.113
40649SOL     OW23953  11.044   6.767  10.588
40649SOL    HW123954  10.972   6.724  10.634
40649SOL    HW223955  11.092   6.814  10.656
40650SOL     OW23956   9.409   8.694   9.405
40650SOL    HW123957   9.380   8.643   9.329
40650SOL    HW223958   9.339   8.684   9.469
40651SOL     OW23959   8.075   3.259   3.618
40651SOL    HW123960   8.057   3.165   3.630
40651SOL    HW223961   8.035   3.279   3.533
40652SOL     OW23962   7.374   1.952   5.378
40652SOL    HW123963   7.427   1.880   5.343
40652SOL    HW223964   7.284   1.920   5.374
40653SOL     OW23965  10.314   7.783   5.221
40653SOL    HW123966  10.234   7.746   5.258
40653SOL    HW223967  10.347   7.715   5.162
40654SOL     OW23968   1.678   3.148   9.811
40654SOL    HW123969   1.699   3.206   9.883
40654SOL    HW223970   1.726   3.067   9.830
40655SOL     OW23971   0.339   2.951   7.976
40655SOL    HW123972   0.250   2.971   8.004
40655SOL    HW223973   0.395   2.999   8.037
40656SOL     OW23974   1.007   4.970   3.920
40656SOL    HW123975   0.985   5.005   4.006
40656SOL    HW223976   1.094   4.930   3.931
40657SOL     OW23977   2.309   5.516   8.977
40657SOL    HW123978   2.338   5.558   9.058
40657SOL    HW223979   2.278   5.429   9.004
40658SOL     OW23980   6.839   0.601  11.075
40658SOL    HW123981   6.834   0.663  11.002
40658SOL    HW223982   6.783   0.528  11.047
40659SOL     OW23983   7.236   4.293   7.865
40659SOL    HW123984   7.174   4.222   7.881
40659SOL    HW223985   7.304   4.281   7.931
40660SOL     OW23986   4.637   7.832   7.782
40660SOL    HW123987   4.555   7.784   7.774
40660SOL    HW223988   4.623   7.892   7.854
40661SOL     OW23989   7.627   0.640   8.420
40661SOL    HW123990   7.696   0.612   8.480
40661SOL    HW223991   7.562   0.569   8.423
40662SOL     OW23992   6.770   7.214   0.407
40662SOL    HW123993   6.830   7.231   0.480
40662SOL    HW223994   6.691   7.262   0.429
40663SOL     OW23995   1.342   8.603   1.072
40663SOL    HW123996   1.298   8.643   0.997
40663SOL    HW223997   1.411   8.549   1.033
40664SOL     OW23998   2.851   3.774  10.105
40664SOL    HW123999   2.785   3.728  10.157
40664SOL    HW224000   2.859   3.722  10.025
40665SOL     OW24001   2.264   5.660   7.461
40665SOL    HW124002   2.287   5.753   7.458
40665SOL    HW224003   2.211   5.650   7.540
40666SOL     OW24004   9.585   1.724   1.051
40666SOL    HW124005   9.515   1.660   1.065
40666SOL    HW224006   9.621   1.740   1.138
40667SOL     OW24007   0.913   0.615   6.298
40667SOL    HW124008   0.937   0.696   6.342
40667SOL    HW224009   0.837   0.638   6.244
40668SOL     OW24010   0.031   3.485   8.602
40668SOL    HW124011   0.126   3.490   8.592
40668SOL    HW224012   0.007   3.402   8.561
40669SOL     OW24013   5.617   6.746   9.265
40669SOL    HW124014   5.631   6.819   9.325
40669SOL    HW224015   5.557   6.780   9.199
40670SOL     OW24016   5.685   4.851   9.308
40670SOL    HW124017   5.683   4.935   9.262
40670SOL    HW224018   5.759   4.804   9.268
40671SOL     OW24019   2.611   7.275   7.719
40671SOL    HW124020   2.650   7.360   7.699
40671SOL    HW224021   2.597   7.234   7.633
40672SOL     OW24022   9.017  10.543   8.336
40672SOL    HW124023   9.008  10.633   8.366
40672SOL    HW224024   9.057  10.497   8.410
40673SOL     OW24025   7.363   9.995   2.956
40673SOL    HW124026   7.369  10.063   2.889
40673SOL    HW224027   7.454   9.971   2.974
40674SOL     OW24028   0.489   6.862   7.460
40674SOL    HW124029   0.422   6.807   7.419
40674SOL    HW224030   0.455   6.881   7.547
40675SOL     OW24031  10.308   8.184   7.523
40675SOL    HW124032  10.292   8.267   7.567
40675SOL    HW224033  10.227   8.135   7.534
40676SOL     OW24034   0.811   6.542   5.502
40676SOL    HW124035   0.731   6.565   5.454
40676SOL    HW224036   0.796   6.574   5.591
40677SOL     OW24037   1.922   6.313   9.893
40677SOL    HW124038   1.989   6.278   9.952
40677SOL    HW224039   1.931   6.408   9.900
40678SOL     OW24040   8.722  10.498   4.269
40678SOL    HW124041   8.657  10.431   4.288
40678SOL    HW224042   8.704  10.524   4.178
40679SOL     OW24043   6.566   4.667   0.478
40679SOL    HW124044   6.590   4.609   0.405
40679SOL    HW224045   6.479   4.638   0.504
40680SOL     OW24046  10.098   4.005   3.220
40680SOL    HW124047  10.013   3.963   3.208
40680SOL    HW224048  10.115   3.998   3.314
40681SOL     OW24049   1.700   2.498   7.956
40681SOL    HW124050   1.723   2.586   7.983
40681SOL    HW224051   1.605   2.492   7.969
40682SOL     OW24052   1.263   2.222   4.634
40682SOL    HW124053   1.243   2.314   4.649
40682SOL    HW224054   1.252   2.181   4.719
40683SOL     OW24055   8.448   3.463   9.504
40683SOL    HW124056   8.367   3.418   9.478
40683SOL    HW224057   8.438   3.478   9.598
40684SOL     OW24058   4.235  10.603   2.214
40684SOL    HW124059   4.314  10.549   2.212
40684SOL    HW224060   4.172  10.553   2.266
40685SOL     OW24061   0.557   6.162   5.702
40685SOL    HW124062   0.480   6.150   5.757
40685SOL    HW224063   0.629   6.172   5.764
40686SOL     OW24064  10.827   5.268   9.341
40686SOL    HW124065  10.789   5.316   9.414
40686SOL    HW224066  10.918   5.298   9.336
40687SOL     OW24067   3.375   8.548   6.274
40687SOL    HW124068   3.424   8.570   6.353
40687SOL    HW224069   3.303   8.493   6.305
40688SOL     OW24070   9.287   7.733   8.219
40688SOL    HW124071   9.314   7.662   8.277
40688SOL    HW224072   9.369   7.775   8.193
40689SOL     OW24073   9.967   3.941   4.551
40689SOL    HW124074   9.981   3.891   4.631
40689SOL    HW224075   9.958   3.874   4.483
40690SOL     OW24076  10.335   8.314   6.284
40690SOL    HW124077  10.285   8.236   6.258
40690SOL    HW224078  10.272   8.385   6.282
40691SOL     OW24079   5.273   8.222  11.060
40691SOL    HW124080   5.344   8.251  11.117
40691SOL    HW224081   5.226   8.302  11.038
40692SOL     OW24082   6.512   6.597   3.448
40692SOL    HW124083   6.532   6.632   3.534
40692SOL    HW224084   6.559   6.513   3.445
40693SOL     OW24085   1.411   4.547  10.684
40693SOL    HW124086   1.383   4.631  10.719
40693SOL    HW224087   1.378   4.482  10.745
40694SOL     OW24088   9.519   2.400   1.833
40694SOL    HW124089   9.510   2.423   1.740
40694SOL    HW224090   9.453   2.332   1.847
40695SOL     OW24091   1.963   5.780   7.406
40695SOL    HW124092   1.950   5.698   7.454
40695SOL    HW224093   1.885   5.789   7.352
40696SOL     OW24094   0.194   7.909   7.999
40696SOL    HW124095   0.100   7.908   7.981
40696SOL    HW224096   0.233   7.943   7.918
40697SOL     OW24097   1.914   8.435   9.734
40697SOL    HW124098   1.831   8.388   9.724
40697SOL    HW224099   1.891   8.517   9.776
40698SOL     OW24100   7.750   2.156  10.485
40698SOL    HW124101   7.837   2.135  10.449
40698SOL    HW224102   7.749   2.251  10.493
40699SOL     OW24103   1.949   3.594   8.593
40699SOL    HW124104   2.022   3.611   8.652
40699SOL    HW224105   1.977   3.630   8.509
40700SOL     OW24106   8.395   4.147   7.406
40700SOL    HW124107   8.416   4.159   7.313
40700SOL    HW224108   8.456   4.204   7.452
40701SOL     OW24109   9.146   4.085  10.159
40701SOL    HW124110   9.154   4.114  10.250
40701SOL    HW224111   9.235   4.057  10.135
40702SOL     OW24112   9.700   9.365   9.712
40702SOL    HW124113   9.632   9.354   9.645
40702SOL    HW224114   9.730   9.276   9.730
40703SOL     OW24115   8.665   8.786   4.400
40703SOL    HW124116   8.606   8.719   4.435
40703SOL    HW224117   8.618   8.868   4.413
40704SOL     OW24118   1.450   2.068   7.288
40704SOL    HW124119   1.371   2.102   7.246
40704SOL    HW224120   1.522   2.100   7.233
40705SOL     OW24121   2.397   9.104   1.755
40705SOL    HW124122   2.418   9.127   1.664
40705SOL    HW224123   2.480   9.075   1.792
40706SOL     OW24124   8.660   5.387  10.668
40706SOL    HW124125   8.679   5.300  10.702
40706SOL    HW224126   8.726   5.400  10.599
40707SOL     OW24127   9.811   6.809   5.181
40707SOL    HW124128   9.725   6.844   5.204
40707SOL    HW224129   9.855   6.880   5.135
40708SOL     OW24130   9.911   4.090  10.731
40708SOL    HW124131  10.004   4.109  10.716
40708SOL    HW224132   9.911   4.005  10.775
40709SOL     OW24133   4.642   9.724   5.872
40709SOL    HW124134   4.575   9.710   5.938
40709SOL    HW224135   4.594   9.752   5.794
40710SOL     OW24136   8.578   8.978   9.130
40710SOL    HW124137   8.582   9.061   9.176
40710SOL    HW224138   8.645   8.985   9.062
40711SOL     OW24139   7.600   6.090   7.760
40711SOL    HW124140   7.630   6.043   7.838
40711SOL    HW224141   7.644   6.175   7.765
40712SOL     OW24142   0.380   5.835   9.837
40712SOL    HW124143   0.404   5.832   9.744
40712SOL    HW224144   0.288   5.808   9.838
40713SOL     OW24145   3.531   1.022   1.017
40713SOL    HW124146   3.437   1.022   1.036
40713SOL    HW224147   3.564   0.943   1.061
40714SOL     OW24148   1.249   5.680   5.779
40714SOL    HW124149   1.312   5.630   5.832
40714SOL    HW224150   1.295   5.761   5.758
40715SOL     OW24151   3.434   0.866   2.832
40715SOL    HW124152   3.391   0.950   2.820
40715SOL    HW224153   3.503   0.864   2.765
40716SOL     OW24154   1.006   1.307   1.281
40716SOL    HW124155   0.935   1.246   1.261
40716SOL    HW224156   1.085   1.262   1.248
40717SOL     OW24157   0.732   4.391   7.169
40717SOL    HW124158   0.800   4.447   7.132
40717SOL    HW224159   0.718   4.323   7.102
40718SOL     OW24160   1.767   4.592   4.125
40718SOL    HW124161   1.684   4.616   4.165
40718SOL    HW224162   1.744   4.562   4.037
40719SOL     OW24163   0.613   3.103   8.412
40719SOL    HW124164   0.699   3.062   8.401
40719SOL    HW224165   0.588   3.129   8.323
40720SOL     OW24166   6.452   4.867   2.810
40720SOL    HW124167   6.462   4.954   2.770
40720SOL    HW224168   6.531   4.856   2.864
40721SOL     OW24169   4.968   8.287   3.859
40721SOL    HW124170   4.898   8.266   3.797
40721SOL    HW224171   4.923   8.326   3.933
40722SOL     OW24172  10.821   5.729   9.896
40722SOL    HW124173  10.751   5.680   9.853
40722SOL    HW224174  10.862   5.778   9.825
40723SOL     OW24175   1.101   1.818   3.071
40723SOL    HW124176   1.185   1.833   3.115
40723SOL    HW224177   1.047   1.773   3.136
40724SOL     OW24178  11.063   1.828   7.732
40724SOL    HW124179  11.001   1.890   7.693
40724SOL    HW224180  11.106   1.787   7.656
40725SOL     OW24181   1.664  10.074   0.225
40725SOL    HW124182   1.745  10.125   0.226
40725SOL    HW224183   1.643  10.061   0.317
40726SOL     OW24184   8.803   5.669   1.417
40726SOL    HW124185   8.728   5.727   1.424
40726SOL    HW224186   8.831   5.677   1.325
40727SOL     OW24187   3.775   9.462   3.196
40727SOL    HW124188   3.770   9.555   3.175
40727SOL    HW224189   3.687   9.439   3.226
40728SOL     OW24190   5.647   0.161   5.186
40728SOL    HW124191   5.574   0.106   5.213
40728SOL    HW224192   5.725   0.109   5.207
40729SOL     OW24193   8.344   3.625  10.018
40729SOL    HW124194   8.421   3.632  10.074
40729SOL    HW224195   8.351   3.538   9.979
40730SOL     OW24196  10.840   9.018   5.671
40730SOL    HW124197  10.849   9.071   5.592
40730SOL    HW224198  10.821   9.081   5.740
40731SOL     OW24199   7.435  10.399   9.580
40731SOL    HW124200   7.374  10.382   9.508
40731SOL    HW224201   7.473  10.484   9.559
40732SOL     OW24202   6.378   4.537  10.976
40732SOL    HW124203   6.347   4.573  11.059
40732SOL    HW224204   6.357   4.604  10.911
40733SOL     OW24205   8.383   2.188   0.792
40733SOL    HW124206   8.461   2.138   0.816
40733SOL    HW224207   8.370   2.248   0.865
40734SOL     OW24208  10.890   6.929   9.137
40734SOL    HW124209  10.844   6.963   9.213
40734SOL    HW224210  10.981   6.920   9.165
40735SOL     OW24211   1.588   9.604   8.390
40735SOL    HW124212   1.532   9.545   8.441
40735SOL    HW224213   1.589   9.565   8.302
40736SOL     OW24214   4.908   5.944  10.137
40736SOL    HW124215   4.867   5.880  10.195
40736SOL    HW224216   4.957   6.001  10.195
40737SOL     OW24217   4.093   5.423   1.223
40737SOL    HW124218   4.037   5.362   1.271
40737SOL    HW224219   4.080   5.507   1.267
40738SOL     OW24220   2.175   0.681   2.856
40738SOL    HW124221   2.252   0.731   2.828
40738SOL    HW224222   2.196   0.653   2.945
40739SOL     OW24223  10.220   7.186   1.162
40739SOL    HW124224  10.210   7.247   1.235
40739SOL    HW224225  10.131   7.154   1.145
40740SOL     OW24226  10.696   8.692   7.232
40740SOL    HW124227  10.627   8.647   7.280
40740SOL    HW224228  10.668   8.783   7.229
40741SOL     OW24229   0.775   7.954   8.090
40741SOL    HW124230   0.850   7.961   8.149
40741SOL    HW224231   0.802   8.000   8.010
40742SOL     OW24232   5.305   5.572   9.597
40742SOL    HW124233   5.383   5.580   9.542
40742SOL    HW224234   5.270   5.485   9.576
40743SOL     OW24235   8.062   6.639   9.079
40743SOL    HW124236   8.071   6.664   9.171
40743SOL    HW224237   8.033   6.718   9.034
40744SOL     OW24238  10.348   6.397   5.423
40744SOL    HW124239  10.320   6.420   5.511
40744SOL    HW224240  10.394   6.313   5.433
40745SOL     OW24241   7.103   7.996   4.377
40745SOL    HW124242   7.060   8.002   4.291
40745SOL    HW224243   7.193   7.969   4.357
40746SOL     OW24244  10.490   5.786  10.192
40746SOL    HW124245  10.549   5.792  10.267
40746SOL    HW224246  10.500   5.696  10.161
40747SOL     OW24247   1.519   2.130  10.713
40747SOL    HW124248   1.542   2.212  10.756
40747SOL    HW224249   1.534   2.063  10.779
40748SOL     OW24250   5.931   2.516   6.772
40748SOL    HW124251   5.890   2.561   6.698
40748SOL    HW224252   5.975   2.585   6.821
40749SOL     OW24253   1.394   4.933   2.206
40749SOL    HW124254   1.427   4.860   2.258
40749SOL    HW224255   1.467   4.955   2.147
40750SOL     OW24256   7.165   4.349   3.741
40750SOL    HW124257   7.204   4.276   3.693
40750SOL    HW224258   7.133   4.310   3.822
40751SOL     OW24259   1.721   9.449   1.074
40751SOL    HW124260   1.637   9.404   1.077
40751SOL    HW224261   1.703   9.537   1.107
40752SOL     OW24262   9.492   4.739   8.060
40752SOL    HW124263   9.468   4.792   7.984
40752SOL    HW224264   9.588   4.743   8.063
40753SOL     OW24265   6.379   0.889  10.035
40753SOL    HW124266   6.301   0.853   9.993
40753SOL    HW224267   6.348   0.966  10.082
40754SOL     OW24268  10.479  10.797   9.031
40754SOL    HW124269  10.386  10.814   9.046
40754SOL    HW224270  10.519  10.797   9.118
40755SOL     OW24271   9.463   4.950   5.780
40755SOL    HW124272   9.471   4.924   5.688
40755SOL    HW224273   9.447   5.044   5.777
40756SOL     OW24274   0.820   1.224   8.659
40756SOL    HW124275   0.736   1.179   8.648
40756SOL    HW224276   0.830   1.233   8.753
40757SOL     OW24277   1.252   2.948   9.408
40757SOL    HW124278   1.330   2.988   9.447
40757SOL    HW224279   1.180   2.977   9.463
40758SOL     OW24280   6.963   2.730   4.810
40758SOL    HW124281   7.052   2.750   4.780
40758SOL    HW224282   6.959   2.765   4.899
40759SOL     OW24283   3.483   8.345   2.510
40759SOL    HW124284   3.479   8.434   2.544
40759SOL    HW224285   3.504   8.355   2.417
40760SOL     OW24286   6.906   2.386   5.064
40760SOL    HW124287   6.921   2.455   5.128
40760SOL    HW224288   6.892   2.432   4.981
40761SOL     OW24289  10.389   4.558   6.330
40761SOL    HW124290  10.383   4.626   6.397
40761SOL    HW224291  10.301   4.552   6.294
40762SOL     OW24292   1.129  10.708   8.199
40762SOL    HW124293   1.033  10.708   8.198
40762SOL    HW224294   1.153  10.795   8.231
40763SOL     OW24295   1.079   3.876   9.641
40763SOL    HW124296   1.129   3.845   9.565
40763SOL    HW224297   1.057   3.796   9.689
40764SOL     OW24298   1.684   4.268   7.042
40764SOL    HW124299   1.622   4.306   7.104
40764SOL    HW224300   1.745   4.218   7.096
40765SOL     OW24301   3.129   6.320   4.253
40765SOL    HW124302   3.165   6.240   4.213
40765SOL    HW224303   3.106   6.294   4.342
40766SOL     OW24304   5.413   3.036   0.779
40766SOL    HW124305   5.477   2.983   0.730
40766SOL    HW224306   5.329   3.013   0.739
40767SOL     OW24307  10.473   7.646   0.102
40767SOL    HW124308  10.444   7.699   0.028
40767SOL    HW224309  10.532   7.581   0.064
40768SOL     OW24310   3.657   6.513   7.565
40768SOL    HW124311   3.593   6.450   7.530
40768SOL    HW224312   3.695   6.468   7.641
40769SOL     OW24313   5.837   0.848   8.834
40769SOL    HW124314   5.903   0.879   8.772
40769SOL    HW224315   5.754   0.880   8.799
40770SOL     OW24316   8.726   3.318   9.300
40770SOL    HW124317   8.780   3.393   9.276
40770SOL    HW224318   8.639   3.340   9.268
40771SOL     OW24319   2.260   0.448   2.716
40771SOL    HW124320   2.232   0.495   2.794
40771SOL    HW224321   2.296   0.365   2.749
40772SOL     OW24322   9.094   0.864   7.492
40772SOL    HW124323   9.179   0.820   7.482
40772SOL    HW224324   9.030   0.795   7.475
40773SOL     OW24325   3.165   1.192   0.074
40773SOL    HW124326   3.171   1.280   0.039
40773SOL    HW224327   3.225   1.192   0.149
40774SOL     OW24328   6.261   0.786   7.748
40774SOL    HW124329   6.346   0.760   7.712
40774SOL    HW224330   6.201   0.784   7.673
40775SOL     OW24331   0.018   7.560   6.151
40775SOL    HW124332  -0.006   7.541   6.060
40775SOL    HW224333  -0.032   7.497   6.203
40776SOL     OW24334  10.576   8.017   9.373
40776SOL    HW124335  10.634   8.093   9.378
40776SOL    HW224336  10.617   7.960   9.307
40777SOL     OW24337   0.523  10.821   7.520
40777SOL    HW124338   0.540  10.835   7.427
40777SOL    HW224339   0.532  10.908   7.559
40778SOL     OW24340   0.724   4.706   5.232
40778SOL    HW124341   0.780   4.705   5.154
40778SOL    HW224342   0.714   4.798   5.254
40779SOL     OW24343   3.847   0.947   0.474
40779SOL    HW124344   3.824   0.989   0.556
40779SOL    HW224345   3.897   1.013   0.426
40780SOL     OW24346   3.759   8.617   8.527
40780SOL    HW124347   3.705   8.567   8.465
40780SOL    HW224348   3.796   8.688   8.474
40781SOL     OW24349   4.930   4.299   8.966
40781SOL    HW124350   4.843   4.282   9.001
40781SOL    HW224351   4.979   4.336   9.039
40782SOL     OW24352   6.154   9.417   2.993
40782SOL    HW124353   6.162   9.356   3.066
40782SOL    HW224354   6.220   9.484   3.010
40783SOL     OW24355   5.793   6.999   5.521
40783SOL    HW124356   5.804   6.918   5.470
40783SOL    HW224357   5.778   6.969   5.610
40784SOL     OW24358   5.308  10.200   4.854
40784SOL    HW124359   5.226  10.224   4.897
40784SOL    HW224360   5.336  10.280   4.810
40785SOL     OW24361  10.117   5.489  10.951
40785SOL    HW124362  10.070   5.476  11.033
40785SOL    HW224363  10.176   5.413  10.945
40786SOL     OW24364   7.699   3.919   2.182
40786SOL    HW124365   7.637   3.914   2.255
40786SOL    HW224366   7.653   3.879   2.108
40787SOL     OW24367   6.105   4.174   2.088
40787SOL    HW124368   6.091   4.095   2.036
40787SOL    HW224369   6.200   4.178   2.101
40788SOL     OW24370   9.889   3.676   8.410
40788SOL    HW124371   9.865   3.601   8.355
40788SOL    HW224372   9.815   3.688   8.469
40789SOL     OW24373   1.200   5.352   1.270
40789SOL    HW124374   1.114   5.392   1.282
40789SOL    HW224375   1.184   5.258   1.277
40790SOL     OW24376  10.932   3.840   2.250
40790SOL    HW124377  10.890   3.762   2.212
40790SOL    HW224378  11.018   3.844   2.207
40791SOL     OW24379   8.879   9.231   4.882
40791SOL    HW124380   8.881   9.318   4.843
40791SOL    HW224381   8.868   9.172   4.807
40792SOL     OW24382   1.514   8.104   5.782
40792SOL    HW124383   1.471   8.039   5.837
40792SOL    HW224384   1.608   8.086   5.792
40793SOL     OW24385   9.678   2.915   6.961
40793SOL    HW124386   9.682   2.819   6.953
40793SOL    HW224387   9.595   2.939   6.920
40794SOL     OW24388   7.746   7.478  10.088
40794SOL    HW124389   7.728   7.569  10.067
40794SOL    HW224390   7.726   7.430  10.007
40795SOL     OW24391   4.193   1.882   4.361
40795SOL    HW124392   4.122   1.831   4.401
40795SOL    HW224393   4.175   1.972   4.386
40796SOL     OW24394   3.457   3.786   6.729
40796SOL    HW124395   3.551   3.777   6.712
40796SOL    HW224396   3.452   3.846   6.803
40797SOL     OW24397   7.165   7.978   0.428
40797SOL    HW124398   7.071   7.996   0.422
40797SOL    HW224399   7.201   8.050   0.480
40798SOL     OW24400   9.888   9.807   0.778
40798SOL    HW124401   9.884   9.714   0.753
40798SOL    HW224402   9.935   9.849   0.706
40799SOL     OW24403   8.738  10.920   7.828
40799SOL    HW124404   8.649  10.946   7.853
40799SOL    HW224405   8.771  10.871   7.903
40800SOL     OW24406   2.571   0.435   0.424
40800SOL    HW124407   2.548   0.501   0.359
40800SOL    HW224408   2.580   0.483   0.506
40801SOL     OW24409   0.442   6.881  10.756
40801SOL    HW124410   0.530   6.917  10.745
40801SOL    HW224411   0.400   6.939  10.819
40802SOL     OW24412   9.143   2.789  11.053
40802SOL    HW124413   9.176   2.700  11.066
40802SOL    HW224414   9.151   2.804  10.958
40803SOL     OW24415   2.175   2.030   6.767
40803SOL    HW124416   2.089   2.000   6.796
40803SOL    HW224417   2.198   1.971   6.695
40804SOL     OW24418   1.027   7.777   4.144
40804SOL    HW124419   1.090   7.834   4.188
40804SOL    HW224420   1.061   7.688   4.158
40805SOL     OW24421   0.605   5.558   8.808
40805SOL    HW124422   0.645   5.499   8.744
40805SOL    HW224423   0.567   5.500   8.874
40806SOL     OW24424   6.929   7.391  10.755
40806SOL    HW124425   6.997   7.326  10.771
40806SOL    HW224426   6.862   7.343  10.706
40807SOL     OW24427   5.909   0.261   4.077
40807SOL    HW124428   5.869   0.311   4.006
40807SOL    HW224429   5.849   0.271   4.150
40808SOL     OW24430   9.527   0.447   4.087
40808SOL    HW124431   9.622   0.448   4.100
40808SOL    HW224432   9.514   0.491   4.003
40809SOL     OW24433   8.751   4.769   5.580
40809SOL    HW124434   8.834   4.724   5.595
40809SOL    HW224435   8.767   4.823   5.502
40810SOL     OW24436   1.823   6.810   7.943
40810SOL    HW124437   1.906   6.790   7.986
40810SOL    HW224438   1.842   6.886   7.888
40811SOL     OW24439   2.816   1.674   9.760
40811SOL    HW124440   2.875   1.735   9.804
40811SOL    HW224441   2.731   1.717   9.762
40812SOL     OW24442   4.848   1.842   1.885
40812SOL    HW124443   4.757   1.850   1.856
40812SOL    HW224444   4.846   1.773   1.951
40813SOL     OW24445   7.282   7.117   6.808
40813SOL    HW124446   7.295   7.072   6.891
40813SOL    HW224447   7.193   7.151   6.812
40814SOL     OW24448   2.405  10.156   8.420
40814SOL    HW124449   2.353  10.079   8.443
40814SOL    HW224450   2.496  10.128   8.432
40815SOL     OW24451   9.586   9.769  10.773
40815SOL    HW124452   9.656   9.742  10.713
40815SOL    HW224453   9.585   9.701  10.841
40816SOL     OW24454   3.123   3.894   1.442
40816SOL    HW124455   3.040   3.903   1.396
40816SOL    HW224456   3.102   3.913   1.533
40817SOL     OW24457   6.534   4.838   8.452
40817SOL    HW124458   6.598   4.804   8.515
40817SOL    HW224459   6.587   4.882   8.385
40818SOL     OW24460  10.853   5.871   0.878
40818SOL    HW124461  10.933   5.921   0.864
40818SOL    HW224462  10.807   5.917   0.948
40819SOL     OW24463   2.275   6.241   2.499
40819SOL    HW124464   2.189   6.282   2.503
40819SOL    HW224465   2.263   6.165   2.442
40820SOL     OW24466  10.594   9.541  10.626
40820SOL    HW124467  10.540   9.545  10.547
40820SOL    HW224468  10.532   9.530  10.697
40821SOL     OW24469   2.008   6.407   2.577
40821SOL    HW124470   1.990   6.498   2.599
40821SOL    HW224471   1.923   6.364   2.579
40822SOL     OW24472   0.945   9.874   0.794
40822SOL    HW124473   0.872   9.932   0.817
40822SOL    HW224474   0.910   9.817   0.725
40823SOL     OW24475  10.335   1.394   5.550
40823SOL    HW124476  10.270   1.339   5.594
40823SOL    HW224477  10.384   1.333   5.495
40824SOL     OW24478   1.740   7.801   8.668
40824SOL    HW124479   1.796   7.877   8.681
40824SOL    HW224480   1.768   7.764   8.584
40825SOL     OW24481   8.332   1.638   7.180
40825SOL    HW124482   8.327   1.628   7.275
40825SOL    HW224483   8.241   1.639   7.151
40826SOL     OW24484   1.672   1.431   7.684
40826SOL    HW124485   1.647   1.517   7.718
40826SOL    HW224486   1.665   1.440   7.589
40827SOL     OW24487  10.012   1.541   6.721
40827SOL    HW124488  10.107   1.527   6.721
40827SOL    HW224489   9.975   1.453   6.732
40828SOL     OW24490   0.523   0.225   7.852
40828SOL    HW124491   0.537   0.228   7.946
40828SOL    HW224492   0.598   0.175   7.818
40829SOL     OW24493  10.215   3.990   7.355
40829SOL    HW124494  10.184   3.921   7.414
40829SOL    HW224495  10.137   4.020   7.309
40830SOL     OW24496   1.125   0.197   8.261
40830SOL    HW124497   1.151   0.280   8.300
40830SOL    HW224498   1.047   0.171   8.309
40831SOL     OW24499   3.241   9.627   0.888
40831SOL    HW124500   3.177   9.698   0.883
40831SOL    HW224501   3.314   9.656   0.833
40832SOL     OW24502   8.359   5.495   8.421
40832SOL    HW124503   8.341   5.551   8.346
40832SOL    HW224504   8.447   5.520   8.449
40833SOL     OW24505   5.055   5.977   0.577
40833SOL    HW124506   5.054   5.902   0.517
40833SOL    HW224507   5.130   6.029   0.548
40834SOL     OW24508   2.320   4.317   1.666
40834SOL    HW124509   2.228   4.292   1.657
40834SOL    HW224510   2.334   4.326   1.760
40835SOL     OW24511   2.628   5.166   7.956
40835SOL    HW124512   2.647   5.143   8.047
40835SOL    HW224513   2.556   5.229   7.962
40836SOL     OW24514   8.727  11.093   8.092
40836SOL    HW124515   8.764  11.005   8.091
40836SOL    HW224516   8.632  11.080   8.091
40837SOL     OW24517   9.958   1.540  10.341
40837SOL    HW124518   9.894   1.483  10.297
40837SOL    HW224519   9.910   1.578  10.414
40838SOL     OW24520   0.669   2.314   3.778
40838SOL    HW124521   0.658   2.305   3.872
40838SOL    HW224522   0.749   2.265   3.758
40839SOL     OW24523  11.023   0.506   4.600
40839SOL    HW124524  10.948   0.535   4.651
40839SOL    HW224525  11.083   0.581   4.600
40840SOL     OW24526   9.221   7.656   7.255
40840SOL    HW124527   9.130   7.629   7.243
40840SOL    HW224528   9.249   7.611   7.334
40841SOL     OW24529   6.592   6.419  11.067
40841SOL    HW124530   6.544   6.480  11.123
40841SOL    HW224531   6.671   6.398  11.117
40842SOL     OW24532  10.086   5.616   2.282
40842SOL    HW124533  10.057   5.706   2.267
40842SOL    HW224534  10.017   5.576   2.334
40843SOL     OW24535  10.695   8.037   1.143
40843SOL    HW124536  10.649   8.096   1.083
40843SOL    HW224537  10.633   8.022   1.214
40844SOL     OW24538  10.354   7.622   8.753
40844SOL    HW124539  10.358   7.703   8.804
40844SOL    HW224540  10.356   7.651   8.661
40845SOL     OW24541  10.854   0.112   2.850
40845SOL    HW124542  10.858   0.018   2.867
40845SOL    HW224543  10.799   0.147   2.920
40846SOL     OW24544   7.651   1.425   4.365
40846SOL    HW124545   7.672   1.503   4.314
40846SOL    HW224546   7.733   1.403   4.410
40847SOL     OW24547   9.367   2.104   0.848
40847SOL    HW124548   9.357   2.196   0.872
40847SOL    HW224549   9.421   2.105   0.769
40848SOL     OW24550   3.108   3.484   8.494
40848SOL    HW124551   3.192   3.443   8.516
40848SOL    HW224552   3.069   3.425   8.429
40849SOL     OW24553   6.389   7.390   0.287
40849SOL    HW124554   6.392   7.472   0.238
40849SOL    HW224555   6.296   7.366   0.287
40850SOL     OW24556   0.060   1.267   1.622
40850SOL    HW124557   0.085   1.344   1.572
40850SOL    HW224558   0.122   1.199   1.594
40851SOL     OW24559   1.931   9.816   5.394
40851SOL    HW124560   1.950   9.905   5.421
40851SOL    HW224561   1.853   9.791   5.443
40852SOL     OW24562   0.708   2.310   1.814
40852SOL    HW124563   0.773   2.256   1.859
40852SOL    HW224564   0.754   2.344   1.737
40853SOL     OW24565  10.932   9.606  10.206
40853SOL    HW124566  10.960   9.665  10.136
40853SOL    HW224567  10.855   9.648  10.244
40854SOL     OW24568   4.367   0.837   5.071
40854SOL    HW124569   4.307   0.886   5.015
40854SOL    HW224570   4.427   0.902   5.106
40855SOL     OW24571   9.203   5.988   3.200
40855SOL    HW124572   9.240   6.075   3.210
40855SOL    HW224573   9.279   5.930   3.198
40856SOL     OW24574   9.253   4.927   0.203
40856SOL    HW124575   9.179   4.901   0.149
40856SOL    HW224576   9.214   4.971   0.278
40857SOL     OW24577   0.282   1.279   4.376
40857SOL    HW124578   0.241   1.200   4.339
40857SOL    HW224579   0.208   1.335   4.401
40858SOL     OW24580  10.035   5.951  10.125
40858SOL    HW124581  10.119   5.947  10.079
40858SOL    HW224582  10.023   6.043  10.145
40859SOL     OW24583   4.971   1.908   8.942
40859SOL    HW124584   4.967   1.861   8.858
40859SOL    HW224585   4.934   1.846   9.005
40860SOL     OW24586  10.736   5.479   0.700
40860SOL    HW124587  10.802   5.527   0.650
40860SOL    HW224588  10.661   5.538   0.704
40861SOL     OW24589   7.523  10.101   8.034
40861SOL    HW124590   7.446  10.137   8.076
40861SOL    HW224591   7.589  10.170   8.039
40862SOL     OW24592   3.466   8.630   2.504
40862SOL    HW124593   3.375   8.627   2.532
40862SOL    HW224594   3.486   8.723   2.499
40863SOL     OW24595   3.114   2.952   4.156
40863SOL    HW124596   3.084   3.035   4.193
40863SOL    HW224597   3.056   2.886   4.193
40864SOL     OW24598   9.082   3.648   8.306
40864SOL    HW124599   9.106   3.729   8.349
40864SOL    HW224600   9.086   3.582   8.375
40865SOL     OW24601   0.996   3.675   9.780
40865SOL    HW124602   1.032   3.594   9.742
40865SOL    HW224603   1.012   3.666   9.874
40866SOL     OW24604   2.262   6.036   9.944
40866SOL    HW124605   2.293   5.947   9.924
40866SOL    HW224606   2.216   6.063   9.864
40867SOL     OW24607   8.942   5.351   5.496
40867SOL    HW124608   9.022   5.319   5.538
40867SOL    HW224609   8.875   5.287   5.521
40868SOL     OW24610   4.246   0.174   7.338
40868SOL    HW124611   4.155   0.146   7.334
40868SOL    HW224612   4.291   0.115   7.277
40869SOL     OW24613  10.492   5.166   1.016
40869SOL    HW124614  10.509   5.206   0.930
40869SOL    HW224615  10.497   5.071   1.000
40870SOL     OW24616   3.213   7.165   0.377
40870SOL    HW124617   3.277   7.234   0.394
40870SOL    HW224618   3.238   7.130   0.291
40871SOL     OW24619  10.535   2.387   7.224
40871SOL    HW124620  10.569   2.356   7.308
40871SOL    HW224621  10.612   2.420   7.177
40872SOL     OW24622   8.344   8.683   7.567
40872SOL    HW124623   8.295   8.761   7.542
40872SOL    HW224624   8.374   8.701   7.656
40873SOL     OW24625   9.887   1.614   2.447
40873SOL    HW124626   9.968   1.578   2.411
40873SOL    HW224627   9.824   1.609   2.375
40874SOL     OW24628   1.554   6.804   7.988
40874SOL    HW124629   1.647   6.787   7.971
40874SOL    HW224630   1.554   6.883   8.042
40875SOL     OW24631   0.161   3.119   9.826
40875SOL    HW124632   0.136   3.159   9.742
40875SOL    HW224633   0.215   3.185   9.869
40876SOL     OW24634  10.532   5.212   4.902
40876SOL    HW124635  10.480   5.156   4.959
40876SOL    HW224636  10.560   5.285   4.957
40877SOL     OW24637   8.008   9.276   5.760
40877SOL    HW124638   7.974   9.332   5.690
40877SOL    HW224639   7.931   9.228   5.792
40878SOL     OW24640   6.750   6.101   7.527
40878SOL    HW124641   6.835   6.117   7.568
40878SOL    HW224642   6.728   6.183   7.484
40879SOL     OW24643   9.559   5.885   0.947
40879SOL    HW124644   9.585   5.793   0.937
40879SOL    HW224645   9.575   5.923   0.861
40880SOL     OW24646  10.638   0.217   8.170
40880SOL    HW124647  10.647   0.308   8.144
40880SOL    HW224648  10.558   0.214   8.222
40881SOL     OW24649   2.580  10.037   0.606
40881SOL    HW124650   2.561  10.025   0.513
40881SOL    HW224651   2.510  10.094   0.638
40882SOL     OW24652   9.345   0.562   0.812
40882SOL    HW124653   9.303   0.507   0.745
40882SOL    HW224654   9.439   0.550   0.797
40883SOL     OW24655   0.432   0.089   2.468
40883SOL    HW124656   0.426   0.140   2.548
40883SOL    HW224657   0.349   0.103   2.423
40884SOL     OW24658   2.570   8.888   2.898
40884SOL    HW124659   2.530   8.810   2.936
40884SOL    HW224660   2.602   8.858   2.812
40885SOL     OW24661   0.546   0.233   0.583
40885SOL    HW124662   0.639   0.211   0.588
40885SOL    HW224663   0.526   0.274   0.667
40886SOL     OW24664   6.580  10.236   0.988
40886SOL    HW124665   6.670  10.270   0.985
40886SOL    HW224666   6.588  10.146   0.954
40887SOL     OW24667   6.739   7.599  10.430
40887SOL    HW124668   6.793   7.630  10.502
40887SOL    HW224669   6.664   7.558  10.472
40888SOL     OW24670  10.751   7.188   7.016
40888SOL    HW124671  10.809   7.262   7.033
40888SOL    HW224672  10.752   7.178   6.920
40889SOL     OW24673   1.042   7.698   9.250
40889SOL    HW124674   1.013   7.659   9.167
40889SOL    HW224675   1.079   7.624   9.299
40890SOL     OW24676   8.268   7.090   8.744
40890SOL    HW124677   8.363   7.090   8.757
40890SOL    HW224678   8.235   7.026   8.807
40891SOL     OW24679   4.957  10.975   4.809
40891SOL    HW124680   5.029  10.938   4.861
40891SOL    HW224681   4.918  11.041   4.865
40892SOL     OW24682   3.523   9.200   1.889
40892SOL    HW124683   3.571   9.282   1.884
40892SOL    HW224684   3.516   9.171   1.798
40893SOL     OW24685   6.209   9.809   8.834
40893SOL    HW124686   6.116   9.832   8.829
40893SOL    HW224687   6.239   9.813   8.743
40894SOL     OW24688   5.963   3.953   8.981
40894SOL    HW124689   6.015   3.914   9.051
40894SOL    HW224690   5.973   4.047   8.993
40895SOL     OW24691   2.967   2.047   3.936
40895SOL    HW124692   3.015   1.974   3.975
40895SOL    HW224693   2.980   2.037   3.841
40896SOL     OW24694   4.901   7.781   3.484
40896SOL    HW124695   4.857   7.715   3.430
40896SOL    HW224696   4.924   7.850   3.422
40897SOL     OW24697   8.077   1.458   9.095
40897SOL    HW124698   8.124   1.376   9.110
40897SOL    HW224699   8.031   1.444   9.012
40898SOL     OW24700   7.061  10.861  10.872
40898SOL    HW124701   7.113  10.783  10.851
40898SOL    HW224702   7.023  10.842  10.958
40899SOL     OW24703   6.878   5.812   1.696
40899SOL    HW124704   6.887   5.809   1.791
40899SOL    HW224705   6.920   5.731   1.665
40900SOL     OW24706   0.870  10.344   2.884
40900SOL    HW124707   0.870  10.407   2.812
40900SOL    HW224708   0.799  10.373   2.941
40901SOL     OW24709   7.460   5.468  10.361
40901SOL    HW124710   7.475   5.454  10.267
40901SOL    HW224711   7.433   5.382  10.394
40902SOL     OW24712   4.489   2.390   0.587
40902SOL    HW124713   4.511   2.417   0.498
40902SOL    HW224714   4.574   2.375   0.629
40903SOL     OW24715   2.529   4.141   7.534
40903SOL    HW124716   2.488   4.114   7.616
40903SOL    HW224717   2.615   4.175   7.559
40904SOL     OW24718  10.037   9.368   5.553
40904SOL    HW124719  10.105   9.310   5.518
40904SOL    HW224720  10.086   9.436   5.598
40905SOL     OW24721   9.756  10.404   2.968
40905SOL    HW124722   9.844  10.366   2.969
40905SOL    HW224723   9.766  10.485   2.918
40906SOL     OW24724   3.356   8.222   0.988
40906SOL    HW124725   3.409   8.162   0.935
40906SOL    HW224726   3.287   8.167   1.024
40907SOL     OW24727   9.630   1.165   1.259
40907SOL    HW124728   9.544   1.150   1.298
40907SOL    HW224729   9.680   1.211   1.326
40908SOL     OW24730   9.179   6.512   0.161
40908SOL    HW124731   9.147   6.582   0.104
40908SOL    HW224732   9.272   6.532   0.174
40909SOL     OW24733   3.945   6.650   0.188
40909SOL    HW124734   3.953   6.642   0.093
40909SOL    HW224735   3.944   6.744   0.204
40910SOL     OW24736   8.345  10.038   6.682
40910SOL    HW124737   8.297  10.089   6.746
40910SOL    HW224738   8.430  10.082   6.675
40911SOL     OW24739   0.122  10.651   0.911
40911SOL    HW124740   0.187  10.608   0.856
40911SOL    HW224741   0.038  10.624   0.874
40912SOL     OW24742   8.785  10.634   6.727
40912SOL    HW124743   8.753  10.655   6.815
40912SOL    HW224744   8.808  10.541   6.731
40913SOL     OW24745   8.648   9.935   8.468
40913SOL    HW124746   8.634   9.929   8.562
40913SOL    HW224747   8.578   9.882   8.430
40914SOL     OW24748   1.167   4.877   9.188
40914SOL    HW124749   1.141   4.892   9.279
40914SOL    HW224750   1.252   4.921   9.179
40915SOL     OW24751   0.324   5.117   4.272
40915SOL    HW124752   0.401   5.115   4.329
40915SOL    HW224753   0.340   5.047   4.208
40916SOL     OW24754   0.582   9.887   9.084
40916SOL    HW124755   0.630   9.822   9.136
40916SOL    HW224756   0.649   9.930   9.031
40917SOL     OW24757   0.936   6.980   9.357
40917SOL    HW124758   1.003   6.947   9.417
40917SOL    HW224759   0.941   7.075   9.365
40918SOL     OW24760   5.651   4.373   2.249
40918SOL    HW124761   5.717   4.441   2.263
40918SOL    HW224762   5.672   4.306   2.314
40919SOL     OW24763  10.135   7.886   0.031
40919SOL    HW124764  10.077   7.947  -0.014
40919SOL    HW224765  10.222   7.926   0.024
40920SOL     OW24766   4.829  10.658  10.820
40920SOL    HW124767   4.892  10.674  10.750
40920SOL    HW224768   4.874  10.686  10.899
40921SOL     OW24769   9.324   8.514   9.214
40921SOL    HW124770   9.358   8.473   9.134
40921SOL    HW224771   9.249   8.459   9.238
40922SOL     OW24772   5.161   7.835   8.907
40922SOL    HW124773   5.075   7.816   8.945
40922SOL    HW224774   5.224   7.797   8.968
40923SOL     OW24775   4.654   5.721   8.705
40923SOL    HW124776   4.639   5.731   8.799
40923SOL    HW224777   4.741   5.681   8.699
40924SOL     OW24778   4.333  10.051   3.444
40924SOL    HW124779   4.342  10.071   3.537
40924SOL    HW224780   4.240  10.066   3.425
40925SOL     OW24781   5.464   6.912   0.386
40925SOL    HW124782   5.434   7.001   0.400
40925SOL    HW224783   5.505   6.886   0.468
40926SOL     OW24784   9.185  11.073   1.023
40926SOL    HW124785   9.235  11.146   0.985
40926SOL    HW224786   9.244  10.998   1.016
40927SOL     OW24787  11.021  10.660   8.590
40927SOL    HW124788  10.968  10.611   8.527
40927SOL    HW224789  11.111  10.642   8.564
40928SOL     OW24790   0.858   4.401   4.938
40928SOL    HW124791   0.865   4.370   4.847
40928SOL    HW224792   0.832   4.492   4.930
40929SOL     OW24793  10.490   7.250  11.093
40929SOL    HW124794  10.395   7.241  11.101
40929SOL    HW224795  10.525   7.194  11.162
40930SOL     OW24796   0.459   5.257   4.981
40930SOL    HW124797   0.552   5.240   4.965
40930SOL    HW224798   0.417   5.236   4.898
40931SOL     OW24799   5.246   2.354   7.625
40931SOL    HW124800   5.249   2.316   7.537
40931SOL    HW224801   5.181   2.301   7.671
40932SOL     OW24802  10.761   0.205   7.165
40932SOL    HW124803  10.699   0.167   7.103
40932SOL    HW224804  10.730   0.176   7.250
40933SOL     OW24805   8.303   3.613   7.431
40933SOL    HW124806   8.284   3.704   7.454
40933SOL    HW224807   8.239   3.562   7.480
40934SOL     OW24808   6.052   7.187   8.305
40934SOL    HW124809   5.973   7.203   8.356
40934SOL    HW224810   6.061   7.264   8.249
40935SOL     OW24811   7.593   4.811   2.703
40935SOL    HW124812   7.530   4.747   2.736
40935SOL    HW224813   7.552   4.896   2.720
40936SOL     OW24814   8.592   4.748   9.234
40936SOL    HW124815   8.634   4.801   9.301
40936SOL    HW224816   8.639   4.664   9.236
40937SOL     OW24817   0.930   6.610   1.509
40937SOL    HW124818   1.008   6.555   1.520
40937SOL    HW224819   0.953   6.692   1.552
40938SOL     OW24820  10.220   5.550   2.015
40938SOL    HW124821  10.175   5.529   2.097
40938SOL    HW224822  10.164   5.513   1.947
40939SOL     OW24823   7.539   8.781   6.642
40939SOL    HW124824   7.619   8.745   6.603
40939SOL    HW224825   7.570   8.832   6.717
40940SOL     OW24826  10.156   2.064   8.058
40940SOL    HW124827  10.081   2.123   8.055
40940SOL    HW224828  10.202   2.086   8.138
40941SOL     OW24829  11.060   2.026   0.318
40941SOL    HW124830  11.155   2.034   0.324
40941SOL    HW224831  11.041   2.032   0.224
40942SOL     OW24832   0.422   7.723   8.039
40942SOL    HW124833   0.500   7.733   7.985
40942SOL    HW224834   0.368   7.799   8.017
40943SOL     OW24835   5.559   0.505   7.440
40943SOL    HW124836   5.537   0.597   7.429
40943SOL    HW224837   5.606   0.482   7.359
40944SOL     OW24838   9.229   7.781   9.190
40944SOL    HW124839   9.202   7.691   9.208
40944SOL    HW224840   9.280   7.775   9.109
40945SOL     OW24841  11.025   0.263   4.175
40945SOL    HW124842  11.052   0.349   4.206
40945SOL    HW224843  10.930   0.267   4.171
40946SOL     OW24844   1.319   2.302   2.612
40946SOL    HW124845   1.340   2.359   2.686
40946SOL    HW224846   1.253   2.241   2.646
40947SOL     OW24847   7.304   9.730   5.440
40947SOL    HW124848   7.238   9.700   5.377
40947SOL    HW224849   7.255   9.749   5.520
40948SOL     OW24850   5.526   7.376   6.475
40948SOL    HW124851   5.504   7.450   6.419
40948SOL    HW224852   5.570   7.314   6.416
40949SOL     OW24853   1.947   6.404   8.821
40949SOL    HW124854   1.949   6.459   8.743
40949SOL    HW224855   1.940   6.465   8.894
40950SOL     OW24856  10.966   2.204   9.834
40950SOL    HW124857  10.939   2.120   9.795
40950SOL    HW224858  10.886   2.257   9.834
40951SOL     OW24859   6.495   2.545   7.358
40951SOL    HW124860   6.536   2.626   7.329
40951SOL    HW224861   6.416   2.573   7.403
40952SOL     OW24862   8.093   3.172   6.996
40952SOL    HW124863   8.118   3.259   7.025
40952SOL    HW224864   8.004   3.160   7.028
40953SOL     OW24865   8.204   7.929   1.294
40953SOL    HW124866   8.198   7.834   1.305
40953SOL    HW224867   8.114   7.960   1.299
40954SOL     OW24868   9.739   7.480   8.856
40954SOL    HW124869   9.790   7.545   8.807
40954SOL    HW224870   9.756   7.500   8.948
40955SOL     OW24871   9.642   6.272   2.528
40955SOL    HW124872   9.548   6.255   2.535
40955SOL    HW224873   9.655   6.353   2.577
40956SOL     OW24874   7.414   6.684   7.671
40956SOL    HW124875   7.500   6.641   7.678
40956SOL    HW224876   7.351   6.614   7.691
40957SOL     OW24877   1.672   1.776   8.071
40957SOL    HW124878   1.732   1.811   8.137
40957SOL    HW224879   1.634   1.698   8.112
40958SOL     OW24880   8.368   2.884   1.461
40958SOL    HW124881   8.322   2.805   1.433
40958SOL    HW224882   8.300   2.940   1.497
40959SOL     OW24883   9.139   5.620   0.512
40959SOL    HW124884   9.167   5.711   0.517
40959SOL    HW224885   9.119   5.606   0.419
40960SOL     OW24886   8.678  10.384  10.292
40960SOL    HW124887   8.596  10.407  10.249
40960SOL    HW224888   8.652  10.347  10.376
40961SOL     OW24889   7.106   4.001   1.264
40961SOL    HW124890   7.197   4.030   1.258
40961SOL    HW224891   7.092   3.982   1.356
40962SOL     OW24892   0.753   6.264  10.328
40962SOL    HW124893   0.726   6.297  10.242
40962SOL    HW224894   0.825   6.321  10.354
40963SOL     OW24895   2.846  10.653  10.820
40963SOL    HW124896   2.912  10.681  10.883
40963SOL    HW224897   2.795  10.732  10.802
40964SOL     OW24898   9.538   8.402  10.232
40964SOL    HW124899   9.572   8.313  10.222
40964SOL    HW224900   9.536   8.416  10.326
40965SOL     OW24901   2.464   8.396   1.951
40965SOL    HW124902   2.511   8.370   1.871
40965SOL    HW224903   2.434   8.313   1.989
40966SOL     OW24904   9.307   3.260   5.745
40966SOL    HW124905   9.279   3.340   5.702
40966SOL    HW224906   9.400   3.252   5.723
40967SOL     OW24907   0.073   9.607   1.962
40967SOL    HW124908  -0.003   9.553   1.938
40967SOL    HW224909   0.043   9.657   2.038
40968SOL     OW24910   8.635   1.373   6.868
40968SOL    HW124911   8.553   1.365   6.915
40968SOL    HW224912   8.650   1.467   6.860
40969SOL     OW24913   2.185   5.231   6.003
40969SOL    HW124914   2.232   5.204   5.923
40969SOL    HW224915   2.135   5.308   5.977
40970SOL     OW24916   9.233   7.504   6.011
40970SOL    HW124917   9.157   7.494   5.954
40970SOL    HW224918   9.234   7.597   6.033
40971SOL     OW24919   5.866   8.785   0.832
40971SOL    HW124920   5.792   8.801   0.773
40971SOL    HW224921   5.825   8.764   0.916
40972SOL     OW24922   5.897   0.726   3.028
40972SOL    HW124923   5.945   0.665   2.971
40972SOL    HW224924   5.836   0.770   2.969
40973SOL     OW24925   4.419   9.102   7.284
40973SOL    HW124926   4.394   9.140   7.368
40973SOL    HW224927   4.355   9.137   7.222
40974SOL     OW24928   4.929   3.857   7.652
40974SOL    HW124929   4.886   3.942   7.660
40974SOL    HW224930   5.020   3.873   7.679
40975SOL     OW24931   6.175   0.144   8.316
40975SOL    HW124932   6.202   0.121   8.405
40975SOL    HW224933   6.081   0.162   8.323
40976SOL     OW24934   8.572   6.930   6.614
40976SOL    HW124935   8.656   6.971   6.596
40976SOL    HW224936   8.595   6.842   6.644
40977SOL     OW24937   1.902   1.308   2.389
40977SOL    HW124938   1.835   1.371   2.414
40977SOL    HW224939   1.926   1.333   2.300
40978SOL     OW24940  10.359  10.292   5.040
40978SOL    HW124941  10.294  10.300   5.110
40978SOL    HW224942  10.408  10.213   5.062
40979SOL     OW24943   7.926   0.449   7.091
40979SOL    HW124944   8.021   0.450   7.103
40979SOL    HW224945   7.911   0.373   7.035
40980SOL     OW24946   4.257   9.132   0.627
40980SOL    HW124947   4.170   9.172   0.624
40980SOL    HW224948   4.300   9.162   0.547
40981SOL     OW24949   9.303   3.489   5.951
40981SOL    HW124950   9.223   3.463   5.995
40981SOL    HW224951   9.371   3.480   6.017
40982SOL     OW24952  10.328   8.723   4.549
40982SOL    HW124953  10.240   8.685   4.547
40982SOL    HW224954  10.318   8.810   4.511
40983SOL     OW24955   3.574   5.980   0.329
40983SOL    HW124956   3.606   6.069   0.320
40983SOL    HW224957   3.558   5.951   0.239
40984SOL     OW24958  10.574   8.664   0.138
40984SOL    HW124959  10.607   8.668   0.048
40984SOL    HW224960  10.641   8.709   0.190
40985SOL     OW24961   9.648   3.157   4.427
40985SOL    HW124962   9.559   3.134   4.452
40985SOL    HW224963   9.701   3.134   4.503
40986SOL     OW24964   5.656   8.451   1.079
40986SOL    HW124965   5.575   8.428   1.124
40986SOL    HW224966   5.652   8.403   0.996
40987SOL     OW24967   0.809   4.394   8.446
40987SOL    HW124968   0.718   4.418   8.464
40987SOL    HW224969   0.803   4.324   8.381
40988SOL     OW24970   6.340   0.937   4.361
40988SOL    HW124971   6.336   0.887   4.442
40988SOL    HW224972   6.357   0.871   4.293
40989SOL     OW24973   8.802   5.657   3.249
40989SOL    HW124974   8.866   5.586   3.251
40989SOL    HW224975   8.851   5.734   3.278
40990SOL     OW24976   9.421   7.366   5.799
40990SOL    HW124977   9.409   7.439   5.859
40990SOL    HW224978   9.516   7.354   5.794
40991SOL     OW24979  10.214   7.911   3.782
40991SOL    HW124980  10.147   7.862   3.829
40991SOL    HW224981  10.165   7.973   3.728
40992SOL     OW24982   9.221   5.688   8.420
40992SOL    HW124983   9.281   5.758   8.394
40992SOL    HW224984   9.191   5.713   8.507
40993SOL     OW24985   2.680   8.212   2.241
40993SOL    HW124986   2.740   8.139   2.260
40993SOL    HW224987   2.645   8.192   2.154
40994SOL     OW24988   0.060   4.536   2.486
40994SOL    HW124989   0.025   4.615   2.525
40994SOL    HW224990   0.085   4.562   2.397
40995SOL     OW24991   3.510   5.686  10.518
40995SOL    HW124992   3.483   5.769  10.557
40995SOL    HW224993   3.495   5.697  10.424
40996SOL     OW24994   1.323   9.615   0.525
40996SOL    HW124995   1.300   9.593   0.435
40996SOL    HW224996   1.239   9.621   0.570
40997SOL     OW24997  10.198   3.803  10.124
40997SOL    HW124998  10.140   3.754  10.182
40997SOL    HW224999  10.243   3.865  10.181
40998SOL     OW25000   7.834  11.059   0.336
40998SOL    HW125001   7.841  11.130   0.272
40998SOL    HW225002   7.925  11.032   0.352
40999SOL     OW25003  10.663   4.821   1.040
40999SOL    HW125004  10.680   4.727   1.036
40999SOL    HW225005  10.744   4.861   1.008
41000SOL     OW25006   1.795   2.801   8.677
41000SOL    HW125007   1.844   2.803   8.759
41000SOL    HW225008   1.800   2.890   8.644
41001SOL     OW25009  10.681   0.182   8.872
41001SOL    HW125010  10.716   0.105   8.826
41001SOL    HW225011  10.668   0.152   8.962
41002SOL     OW25012   8.451   9.873   0.717
41002SOL    HW125013   8.460   9.787   0.759
41002SOL    HW225014   8.471   9.936   0.786
41003SOL     OW25015   9.891   6.170   0.373
41003SOL    HW125016   9.907   6.133   0.286
41003SOL    HW225017   9.978   6.178   0.412
41004SOL     OW25018   0.350   4.481   5.302
41004SOL    HW125019   0.399   4.488   5.384
41004SOL    HW225020   0.388   4.548   5.245
41005SOL     OW25021   9.694   6.170   4.227
41005SOL    HW125022   9.754   6.132   4.291
41005SOL    HW225023   9.607   6.143   4.257
41006SOL     OW25024   0.024   5.816  11.000
41006SOL    HW125025   0.029   5.896  10.948
41006SOL    HW225026   0.106   5.771  10.982
41007SOL     OW25027   1.263  10.058   5.407
41007SOL    HW125028   1.290  10.132   5.353
41007SOL    HW225029   1.335   9.995   5.399
41008SOL     OW25030   1.164   2.638   6.114
41008SOL    HW125031   1.090   2.685   6.075
41008SOL    HW225032   1.183   2.685   6.195
41009SOL     OW25033   7.171   5.943   6.106
41009SOL    HW125034   7.211   5.981   6.027
41009SOL    HW225035   7.138   5.858   6.077
41010SOL     OW25036   8.175   6.666   7.675
41010SOL    HW125037   8.199   6.587   7.627
41010SOL    HW225038   8.257   6.697   7.713
41011SOL     OW25039   4.919   2.187   4.968
41011SOL    HW125040   4.927   2.274   4.929
41011SOL    HW225041   4.825   2.169   4.969
41012SOL     OW25042   7.914   1.518   5.726
41012SOL    HW125043   7.939   1.445   5.783
41012SOL    HW225044   7.853   1.479   5.663
41013SOL     OW25045   0.472   8.949   9.925
41013SOL    HW125046   0.439   8.894   9.854
41013SOL    HW225047   0.395   8.965   9.980
41014SOL     OW25048   9.545   4.443   7.070
41014SOL    HW125049   9.640   4.456   7.072
41014SOL    HW225050   9.510   4.525   7.036
41015SOL     OW25051  10.827   3.097   0.632
41015SOL    HW125052  10.770   3.152   0.579
41015SOL    HW225053  10.815   3.128   0.721
41016SOL     OW25054   8.202   6.934   1.029
41016SOL    HW125055   8.147   7.012   1.020
41016SOL    HW225056   8.289   6.962   1.000
41017SOL     OW25057   6.536   6.672   7.757
41017SOL    HW125058   6.505   6.583   7.776
41017SOL    HW225059   6.485   6.728   7.815
41018SOL     OW25060   5.019   8.418   9.250
41018SOL    HW125061   4.953   8.462   9.303
41018SOL    HW225062   5.000   8.325   9.260
41019SOL     OW25063   9.367   9.192   4.848
41019SOL    HW125064   9.337   9.103   4.869
41019SOL    HW225065   9.350   9.243   4.927
41020SOL     OW25066   3.323   2.488   0.228
41020SOL    HW125067   3.240   2.535   0.227
41020SOL    HW225068   3.315   2.424   0.157
41021SOL     OW25069   4.050   5.512   2.542
41021SOL    HW125070   4.047   5.435   2.600
41021SOL    HW225071   4.065   5.586   2.600
41022SOL     OW25072   9.453   0.396   7.370
41022SOL    HW125073   9.527   0.439   7.413
41022SOL    HW225074   9.406   0.467   7.327
41023SOL     OW25075   4.180   7.580   9.901
41023SOL    HW125076   4.173   7.516   9.972
41023SOL    HW225077   4.272   7.576   9.874
41024SOL     OW25078  10.204   2.516   7.640
41024SOL    HW125079  10.240   2.436   7.601
41024SOL    HW225080  10.172   2.488   7.726
41025SOL     OW25081   3.961   5.160   4.577
41025SOL    HW125082   4.057   5.157   4.583
41025SOL    HW225083   3.938   5.081   4.528
41026SOL     OW25084   9.326   9.923   9.443
41026SOL    HW125085   9.279   9.840   9.433
41026SOL    HW225086   9.318   9.944   9.536
41027SOL     OW25087  10.750   3.899   2.004
41027SOL    HW125088  10.752   3.926   1.912
41027SOL    HW225089  10.761   3.980   2.053
41028SOL     OW25090   6.628   5.115   0.066
41028SOL    HW125091   6.598   5.107   0.157
41028SOL    HW225092   6.573   5.183   0.029
41029SOL     OW25093   4.052  10.999   1.691
41029SOL    HW125094   3.980  11.060   1.707
41029SOL    HW225095   4.114  11.049   1.638
41030SOL     OW25096   1.394   7.753  10.622
41030SOL    HW125097   1.441   7.796  10.550
41030SOL    HW225098   1.438   7.668  10.631
41031SOL     OW25099   7.565   7.464   5.923
41031SOL    HW125100   7.561   7.517   5.843
41031SOL    HW225101   7.475   7.434   5.936
41032SOL     OW25102   3.436   7.442   1.275
41032SOL    HW125103   3.477   7.374   1.220
41032SOL    HW225104   3.481   7.436   1.359
41033SOL     OW25105  10.674  10.457   6.667
41033SOL    HW125106  10.652  10.412   6.585
41033SOL    HW225107  10.601  10.517   6.681
41034SOL     OW25108   9.401   2.139  10.460
41034SOL    HW125109   9.433   2.176  10.542
41034SOL    HW225110   9.379   2.048  10.481
41035SOL     OW25111   7.657  10.529   4.801
41035SOL    HW125112   7.633  10.565   4.715
41035SOL    HW225113   7.692  10.442   4.781
41036SOL     OW25114   9.397   4.345   1.921
41036SOL    HW125115   9.348   4.343   2.003
41036SOL    HW225116   9.394   4.436   1.893
41037SOL     OW25117  10.589  10.403   0.379
41037SOL    HW125118  10.556  10.489   0.404
41037SOL    HW225119  10.565  10.394   0.286
41038SOL     OW25120   6.797   8.239   3.590
41038SOL    HW125121   6.891   8.252   3.603
41038SOL    HW225122   6.774   8.167   3.649
41039SOL     OW25123  10.976   6.625   6.545
41039SOL    HW125124  10.932   6.540   6.536
41039SOL    HW225125  10.919   6.687   6.500
41040SOL     OW25126  10.378   6.727   2.932
41040SOL    HW125127  10.300   6.780   2.915
41040SOL    HW225128  10.371   6.654   2.870
41041SOL     OW25129   7.218   8.438   9.651
41041SOL    HW125130   7.250   8.348   9.647
41041SOL    HW225131   7.240   8.474   9.565
41042SOL     OW25132  10.179   6.095   3.893
41042SOL    HW125133  10.088   6.100   3.865
41042SOL    HW225134  10.203   6.003   3.879
41043SOL     OW25135   3.484   1.214   3.945
41043SOL    HW125136   3.523   1.254   4.023
41043SOL    HW225137   3.404   1.172   3.977
41044SOL     OW25138   9.813   8.404  10.974
41044SOL    HW125139   9.905   8.430  10.964
41044SOL    HW225140   9.808   8.318  10.931
41045SOL     OW25141   8.941   6.623   9.821
41045SOL    HW125142   8.904   6.538   9.847
41045SOL    HW225143   9.000   6.602   9.748
41046SOL     OW25144   7.102   8.267   9.915
41046SOL    HW125145   7.016   8.277   9.956
41046SOL    HW225146   7.146   8.350   9.932
41047SOL     OW25147   0.659   4.952   2.909
41047SOL    HW125148   0.660   4.934   2.815
41047SOL    HW225149   0.708   4.879   2.948
41048SOL     OW25150   0.202   5.484   6.459
41048SOL    HW125151   0.290   5.492   6.494
41048SOL    HW225152   0.162   5.414   6.511
41049SOL     OW25153   2.913   9.392   7.981
41049SOL    HW125154   2.910   9.323   7.914
41049SOL    HW225155   2.896   9.473   7.933
41050SOL     OW25156   2.554   4.898   9.825
41050SOL    HW125157   2.470   4.890   9.870
41050SOL    HW225158   2.566   4.992   9.813
41051SOL     OW25159   2.291   6.799   8.399
41051SOL    HW125160   2.246   6.797   8.483
41051SOL    HW225161   2.334   6.713   8.393
41052SOL     OW25162   9.120   5.670   1.333
41052SOL    HW125163   9.072   5.627   1.262
41052SOL    HW225164   9.087   5.759   1.334
41053SOL     OW25165   9.079   7.550   8.138
41053SOL    HW125166   9.144   7.493   8.179
41053SOL    HW225167   9.122   7.635   8.133
41054SOL     OW25168   1.610   5.498   7.704
41054SOL    HW125169   1.699   5.530   7.720
41054SOL    HW225170   1.604   5.492   7.608
41055SOL     OW25171   5.914  10.720   9.947
41055SOL    HW125172   5.915  10.684   9.858
41055SOL    HW225173   5.859  10.798   9.941
41056SOL     OW25174  10.160   8.962   9.773
41056SOL    HW125175  10.149   8.922   9.859
41056SOL    HW225176  10.165   9.056   9.790
41057SOL     OW25177   7.824   6.237   4.303
41057SOL    HW125178   7.760   6.305   4.286
41057SOL    HW225179   7.906   6.284   4.319
41058SOL     OW25180   9.569   8.769   0.964
41058SOL    HW125181   9.561   8.828   1.038
41058SOL    HW225182   9.543   8.683   0.998
41059SOL     OW25183   3.271   0.467   0.003
41059SOL    HW125184   3.280   0.407   0.077
41059SOL    HW225185   3.187   0.511   0.018
41060SOL     OW25186   6.148   1.101   1.055
41060SOL    HW125187   6.067   1.103   1.106
41060SOL    HW225188   6.128   1.044   0.981
41061SOL     OW25189   8.310   5.723   5.360
41061SOL    HW125190   8.344   5.732   5.271
41061SOL    HW225191   8.324   5.809   5.400
41062SOL     OW25192   2.858   9.125   9.613
41062SOL    HW125193   2.920   9.073   9.664
41062SOL    HW225194   2.798   9.161   9.677
41063SOL     OW25195   6.878   6.511   5.030
41063SOL    HW125196   6.834   6.448   4.973
41063SOL    HW225197   6.809   6.546   5.085
41064SOL     OW25198   6.075   5.774   7.797
41064SOL    HW125199   6.021   5.744   7.870
41064SOL    HW225200   6.139   5.833   7.836
41065SOL     OW25201   1.558   9.865   3.104
41065SOL    HW125202   1.535   9.800   3.037
41065SOL    HW225203   1.484   9.926   3.104
41066SOL     OW25204   0.527   1.542   0.509
41066SOL    HW125205   0.436   1.513   0.503
41066SOL    HW225206   0.521   1.637   0.519
41067SOL     OW25207  10.986   6.663   7.668
41067SOL    HW125208  11.003   6.698   7.580
41067SOL    HW225209  11.072   6.638   7.701
41068SOL     OW25210   6.223  10.984   2.453
41068SOL    HW125211   6.137  10.989   2.494
41068SOL    HW225212   6.276  10.935   2.515
41069SOL     OW25213   3.762   2.428   8.878
41069SOL    HW125214   3.776   2.334   8.865
41069SOL    HW225215   3.671   2.435   8.906
41070SOL     OW25216   9.929  10.522   3.883
41070SOL    HW125217   9.993  10.558   3.821
41070SOL    HW225218   9.874  10.597   3.906
41071SOL     OW25219   7.732   1.277   8.372
41071SOL    HW125220   7.658   1.291   8.313
41071SOL    HW225221   7.771   1.195   8.342
41072SOL     OW25222   0.228   5.496   3.294
41072SOL    HW125223   0.230   5.543   3.211
41072SOL    HW225224   0.279   5.550   3.354
41073SOL     OW25225   4.153   0.476   0.605
41073SOL    HW125226   4.157   0.422   0.526
41073SOL    HW225227   4.110   0.556   0.577
41074SOL     OW25228   7.250   0.445  10.162
41074SOL    HW125229   7.214   0.519  10.113
41074SOL    HW225230   7.250   0.372  10.099
41075SOL     OW25231  10.817   9.102   9.111
41075SOL    HW125232  10.867   9.172   9.153
41075SOL    HW225233  10.727   9.118   9.138
41076SOL     OW25234   1.075   7.214   7.769
41076SOL    HW125235   1.158   7.255   7.792
41076SOL    HW225236   1.022   7.221   7.848
41077SOL     OW25237   2.887   7.478   0.862
41077SOL    HW125238   2.797   7.449   0.874
41077SOL    HW225239   2.925   7.413   0.802
41078SOL     OW25240   0.877  10.337   8.631
41078SOL    HW125241   0.897  10.334   8.724
41078SOL    HW225242   0.952  10.381   8.591
41079SOL     OW25243   1.430   9.367   1.479
41079SOL    HW125244   1.490   9.352   1.405
41079SOL    HW225245   1.378   9.286   1.485
41080SOL     OW25246   5.382   4.037   5.768
41080SOL    HW125247   5.448   4.102   5.744
41080SOL    HW225248   5.392   4.026   5.862
41081SOL     OW25249   9.886  10.295   9.877
41081SOL    HW125250   9.879  10.199   9.880
41081SOL    HW225251   9.863  10.324   9.965
41082SOL     OW25252   0.764   5.369   3.149
41082SOL    HW125253   0.813   5.298   3.107
41082SOL    HW225254   0.752   5.340   3.239
41083SOL     OW25255   6.409   0.691   9.648
41083SOL    HW125256   6.399   0.598   9.671
41083SOL    HW225257   6.320   0.725   9.645
41084SOL     OW25258   8.771   7.181   1.260
41084SOL    HW125259   8.847   7.232   1.287
41084SOL    HW225260   8.767   7.109   1.323
41085SOL     OW25261   0.479   8.044   4.138
41085SOL    HW125262   0.403   7.986   4.146
41085SOL    HW225263   0.547   8.001   4.190
41086SOL     OW25264   7.307   8.945   4.383
41086SOL    HW125265   7.239   8.958   4.317
41086SOL    HW225266   7.339   8.856   4.367
41087SOL     OW25267  10.937   8.575   7.237
41087SOL    HW125268  10.851   8.616   7.247
41087SOL    HW225269  10.995   8.645   7.206
41088SOL     OW25270   5.915   5.698   8.013
41088SOL    HW125271   5.892   5.678   8.103
41088SOL    HW225272   5.883   5.623   7.963
41089SOL     OW25273   3.648   4.936   1.421
41089SOL    HW125274   3.728   4.912   1.468
41089SOL    HW225275   3.588   4.965   1.489
41090SOL     OW25276   9.048   9.665   4.675
41090SOL    HW125277   9.142   9.666   4.654
41090SOL    HW225278   9.006   9.703   4.598
41091SOL     OW25279   8.589   0.276   8.652
41091SOL    HW125280   8.521   0.308   8.710
41091SOL    HW225281   8.592   0.181   8.668
41092SOL     OW25282   7.376   7.455   6.982
41092SOL    HW125283   7.401   7.384   6.922
41092SOL    HW225284   7.281   7.450   6.987
41093SOL     OW25285   8.309   4.660   9.320
41093SOL    HW125286   8.307   4.659   9.224
41093SOL    HW225287   8.402   4.668   9.342
41094SOL     OW25288   9.127   2.063   7.737
41094SOL    HW125289   9.034   2.082   7.723
41094SOL    HW225290   9.155   2.126   7.802
41095SOL     OW25291   5.324   9.277  10.841
41095SOL    HW125292   5.277   9.255  10.760
41095SOL    HW225293   5.256   9.306  10.902
41096SOL     OW25294   3.493   2.354   3.006
41096SOL    HW125295   3.455   2.411   2.939
41096SOL    HW225296   3.434   2.362   3.080
41097SOL     OW25297   2.522   7.001   8.868
41097SOL    HW125298   2.551   6.990   8.777
41097SOL    HW225299   2.569   7.078   8.899
41098SOL     OW25300   2.288   1.178   9.123
41098SOL    HW125301   2.371   1.154   9.081
41098SOL    HW225302   2.299   1.153   9.214
41099SOL     OW25303   2.232   3.552   0.328
41099SOL    HW125304   2.221   3.622   0.264
41099SOL    HW225305   2.145   3.538   0.364
41100SOL     OW25306   2.812  10.496   0.793
41100SOL    HW125307   2.870  10.447   0.851
41100SOL    HW225308   2.868  10.525   0.721
41101SOL     OW25309  10.094   5.511  10.221
41101SOL    HW125310  10.020   5.451  10.210
41101SOL    HW225311  10.166   5.454  10.249
41102SOL     OW25312   2.845   9.989   6.820
41102SOL    HW125313   2.897  10.067   6.837
41102SOL    HW225314   2.773  10.019   6.764
41103SOL     OW25315   5.275   5.862   8.103
41103SOL    HW125316   5.230   5.874   8.019
41103SOL    HW225317   5.216   5.900   8.167
41104SOL     OW25318   1.050   9.557  10.048
41104SOL    HW125319   1.125   9.594  10.093
41104SOL    HW225320   1.035   9.615   9.973
41105SOL     OW25321   5.060   3.742   9.373
41105SOL    HW125322   5.058   3.780   9.460
41105SOL    HW225323   5.034   3.813   9.315
41106SOL     OW25324   4.428   6.959   9.738
41106SOL    HW125325   4.391   6.872   9.757
41106SOL    HW225326   4.364   7.000   9.680
41107SOL     OW25327   0.717   2.909   8.875
41107SOL    HW125328   0.800   2.866   8.852
41107SOL    HW225329   0.714   2.907   8.970
41108SOL     OW25330   8.053   7.404   2.520
41108SOL    HW125331   8.015   7.455   2.448
41108SOL    HW225332   8.017   7.316   2.508
41109SOL     OW25333   6.289   5.498  10.543
41109SOL    HW125334   6.272   5.424  10.484
41109SOL    HW225335   6.270   5.575  10.489
41110SOL     OW25336   0.961   7.799   0.016
41110SOL    HW125337   0.935   7.891   0.015
41110SOL    HW225338   0.880   7.750  -0.001
41111SOL     OW25339  10.436   8.405   2.641
41111SOL    HW125340  10.350   8.395   2.681
41111SOL    HW225341  10.422   8.384   2.548
41112SOL     OW25342  10.536   8.525   4.510
41112SOL    HW125343  10.554   8.502   4.418
41112SOL    HW225344  10.485   8.606   4.505
41113SOL     OW25345   6.807   6.330   0.134
41113SOL    HW125346   6.785   6.237   0.132
41113SOL    HW225347   6.778   6.359   0.221
41114SOL     OW25348   1.828   5.631   4.177
41114SOL    HW125349   1.915   5.614   4.213
41114SOL    HW225350   1.845   5.676   4.094
41115SOL     OW25351   6.297   0.950   7.948
41115SOL    HW125352   6.240   0.899   8.005
41115SOL    HW225353   6.288   0.908   7.862
41116SOL     OW25354   6.751   4.130   0.202
41116SOL    HW125355   6.713   4.202   0.251
41116SOL    HW225356   6.725   4.146   0.111
41117SOL     OW25357   3.076  10.402   0.874
41117SOL    HW125358   3.034  10.333   0.822
41117SOL    HW225359   3.148  10.357   0.919
41118SOL     OW25360   6.893   1.145   2.317
41118SOL    HW125361   6.850   1.081   2.260
41118SOL    HW225362   6.875   1.230   2.276
41119SOL     OW25363   0.462   1.420   5.086
41119SOL    HW125364   0.486   1.344   5.139
41119SOL    HW225365   0.398   1.467   5.139
41120SOL     OW25366   2.238   4.004   3.365
41120SOL    HW125367   2.275   3.996   3.453
41120SOL    HW225368   2.156   4.051   3.377
41121SOL     OW25369   0.441   6.555   1.392
41121SOL    HW125370   0.481   6.642   1.386
41121SOL    HW225371   0.372   6.564   1.458
41122SOL     OW25372   8.502   5.714   1.424
41122SOL    HW125373   8.424   5.752   1.463
41122SOL    HW225374   8.469   5.663   1.350
41123SOL     OW25375   0.685   5.386   2.281
41123SOL    HW125376   0.752   5.334   2.325
41123SOL    HW225377   0.714   5.391   2.190
41124SOL     OW25378   9.307   8.130   8.510
41124SOL    HW125379   9.242   8.061   8.523
41124SOL    HW225380   9.269   8.207   8.551
41125SOL     OW25381   5.989   7.848   2.684
41125SOL    HW125382   6.054   7.910   2.651
41125SOL    HW225383   5.928   7.837   2.611
41126SOL     OW25384   8.629   7.201   2.376
41126SOL    HW125385   8.590   7.258   2.310
41126SOL    HW225386   8.617   7.247   2.458
41127SOL     OW25387   0.284  10.095   6.853
41127SOL    HW125388   0.279  10.003   6.879
41127SOL    HW225389   0.196  10.115   6.820
41128SOL     OW25390   0.950   2.854   4.676
41128SOL    HW125391   1.038   2.816   4.680
41128SOL    HW225392   0.964   2.947   4.690
41129SOL     OW25393   8.737   2.906   8.664
41129SOL    HW125394   8.801   2.855   8.614
41129SOL    HW225395   8.786   2.982   8.695
41130SOL     OW25396   0.727   7.057   5.396
41130SOL    HW125397   0.770   6.973   5.379
41130SOL    HW225398   0.797   7.122   5.387
41131SOL     OW25399   1.197   6.526   5.839
41131SOL    HW125400   1.278   6.514   5.888
41131SOL    HW225401   1.139   6.572   5.899
41132SOL     OW25402   5.457  10.090   8.074
41132SOL    HW125403   5.391  10.143   8.029
41132SOL    HW225404   5.424  10.080   8.163
41133SOL     OW25405   0.766   9.420   7.983
41133SOL    HW125406   0.781   9.328   8.005
41133SOL    HW225407   0.780   9.425   7.888
41134SOL     OW25408   0.906  10.336   0.181
41134SOL    HW125409   0.995  10.308   0.159
41134SOL    HW225410   0.869  10.367   0.099
41135SOL     OW25411   4.177   8.386   9.325
41135SOL    HW125412   4.132   8.425   9.250
41135SOL    HW225413   4.112   8.328   9.364
41136SOL     OW25414   0.081   3.371   5.265
41136SOL    HW125415   0.155   3.406   5.216
41136SOL    HW225416   0.082   3.418   5.348
41137SOL     OW25417  10.128   8.561   3.401
41137SOL    HW125418  10.102   8.579   3.310
41137SOL    HW225419  10.223   8.570   3.400
41138SOL     OW25420   5.077   9.789   2.693
41138SOL    HW125421   5.046   9.878   2.705
41138SOL    HW225422   5.075   9.751   2.781
41139SOL     OW25423   8.836   7.970   1.651
41139SOL    HW125424   8.924   7.990   1.619
41139SOL    HW225425   8.787   7.947   1.572
41140SOL     OW25426   8.552   2.348   5.266
41140SOL    HW125427   8.516   2.427   5.305
41140SOL    HW225428   8.581   2.295   5.340
41141SOL     OW25429   6.582   9.487  10.391
41141SOL    HW125430   6.548   9.447  10.471
41141SOL    HW225431   6.677   9.490  10.404
41142SOL     OW25432   8.230  10.202   6.218
41142SOL    HW125433   8.152  10.155   6.247
41142SOL    HW225434   8.197  10.287   6.190
41143SOL     OW25435   2.848  10.059  10.867
41143SOL    HW125436   2.916  10.029  10.927
41143SOL    HW225437   2.766  10.047  10.915
41144SOL     OW25438   7.479   6.031  10.456
41144SOL    HW125439   7.472   5.936  10.444
41144SOL    HW225440   7.565   6.053  10.421
41145SOL     OW25441   3.127   3.178   8.029
41145SOL    HW125442   3.125   3.253   7.970
41145SOL    HW225443   3.150   3.104   7.972
41146SOL     OW25444   3.857  10.137   0.536
41146SOL    HW125445   3.873  10.146   0.442
41146SOL    HW225446   3.762  10.129   0.543
41147SOL     OW25447   3.542   6.600   0.865
41147SOL    HW125448   3.630   6.637   0.873
41147SOL    HW225449   3.493   6.664   0.813
41148SOL     OW25450   0.662   1.383   1.040
41148SOL    HW125451   0.659   1.471   1.003
41148SOL    HW225452   0.663   1.397   1.134
41149SOL     OW25453   0.223   9.218   2.530
41149SOL    HW125454   0.132   9.248   2.533
41149SOL    HW225455   0.260   9.244   2.614
41150SOL     OW25456   7.023   7.874   7.508
41150SOL    HW125457   7.005   7.810   7.576
41150SOL    HW225458   6.940   7.885   7.463
41151SOL     OW25459   6.755   4.543   3.991
41151SOL    HW125460   6.701   4.600   4.046
41151SOL    HW225461   6.727   4.562   3.901
41152SOL     OW25462   4.838   2.361   5.981
41152SOL    HW125463   4.842   2.306   6.059
41152SOL    HW225464   4.893   2.436   6.001
41153SOL     OW25465   6.114   2.965   8.677
41153SOL    HW125466   6.137   2.994   8.588
41153SOL    HW225467   6.132   3.040   8.732
41154SOL     OW25468   7.894   6.005   3.431
41154SOL    HW125469   7.976   6.012   3.382
41154SOL    HW225470   7.869   6.095   3.449
41155SOL     OW25471   7.686   6.878   9.897
41155SOL    HW125472   7.760   6.871   9.957
41155SOL    HW225473   7.724   6.861   9.810
41156SOL     OW25474   8.863   3.435   2.466
41156SOL    HW125475   8.813   3.357   2.440
41156SOL    HW225476   8.816   3.508   2.426
41157SOL     OW25477   5.584   6.650   2.642
41157SOL    HW125478   5.649   6.704   2.596
41157SOL    HW225479   5.607   6.560   2.618
41158SOL     OW25480   8.139   4.478   9.460
41158SOL    HW125481   8.194   4.466   9.537
41158SOL    HW225482   8.183   4.546   9.409
41159SOL     OW25483   9.265   8.565  10.365
41159SOL    HW125484   9.231   8.476  10.355
41159SOL    HW225485   9.187   8.620  10.372
41160SOL     OW25486   0.805   5.297   1.546
41160SOL    HW125487   0.883   5.257   1.584
41160SOL    HW225488   0.734   5.237   1.568
41161SOL     OW25489   6.540   5.421   1.039
41161SOL    HW125490   6.555   5.488   1.105
41161SOL    HW225491   6.518   5.469   0.959
41162SOL     OW25492   2.550   5.074   7.101
41162SOL    HW125493   2.456   5.074   7.119
41162SOL    HW225494   2.557   5.106   7.011
41163SOL     OW25495   9.554   8.236   3.062
41163SOL    HW125496   9.561   8.140   3.059
41163SOL    HW225497   9.503   8.259   2.984
41164SOL     OW25498   9.103   8.466   1.760
41164SOL    HW125499   9.008   8.462   1.770
41164SOL    HW225500   9.122   8.405   1.688
41165SOL     OW25501   0.479   4.207   8.431
41165SOL    HW125502   0.528   4.288   8.419
41165SOL    HW225503   0.402   4.217   8.375
41166SOL     OW25504   1.589   7.034   8.123
41166SOL    HW125505   1.666   7.087   8.102
41166SOL    HW225506   1.584   7.036   8.218
41167SOL     OW25507   0.104   4.541  11.066
41167SOL    HW125508   0.102   4.446  11.082
41167SOL    HW225509   0.167   4.575  11.129
41168SOL     OW25510   1.598   6.236   2.286
41168SOL    HW125511   1.688   6.270   2.287
41168SOL    HW225512   1.586   6.203   2.196
41169SOL     OW25513   1.863   5.100  11.073
41169SOL    HW125514   1.886   5.127  10.984
41169SOL    HW225515   1.905   5.164  11.129
41170SOL     OW25516   6.825   2.286   6.029
41170SOL    HW125517   6.859   2.298   6.117
41170SOL    HW225518   6.817   2.374   5.994
41171SOL     OW25519   0.034   8.141  10.969
41171SOL    HW125520  -0.010   8.206  10.914
41171SOL    HW225521   0.058   8.070  10.908
41172SOL     OW25522   7.132   7.658   5.196
41172SOL    HW125523   7.166   7.610   5.119
41172SOL    HW225524   7.112   7.589   5.259
41173SOL     OW25525   1.844   9.114   9.349
41173SOL    HW125526   1.854   9.187   9.410
41173SOL    HW225527   1.750   9.096   9.346
41174SOL     OW25528   9.107   9.944   0.793
41174SOL    HW125529   9.024   9.981   0.822
41174SOL    HW225530   9.151  10.016   0.748
41175SOL     OW25531   7.054   3.192   7.350
41175SOL    HW125532   7.088   3.208   7.438
41175SOL    HW225533   7.124   3.220   7.291
41176SOL     OW25534   0.454   6.690   0.252
41176SOL    HW125535   0.481   6.698   0.160
41176SOL    HW225536   0.536   6.695   0.302
41177SOL     OW25537   0.290   7.127   1.419
41177SOL    HW125538   0.244   7.198   1.374
41177SOL    HW225539   0.335   7.079   1.349
41178SOL     OW25540   9.222   1.034   3.004
41178SOL    HW125541   9.307   1.067   2.975
41178SOL    HW225542   9.163   1.052   2.930
41179SOL     OW25543   4.622   4.715   9.900
41179SOL    HW125544   4.550   4.777   9.892
41179SOL    HW225545   4.586   4.632   9.869
41180SOL     OW25546   1.689   4.505   8.107
41180SOL    HW125547   1.727   4.483   8.192
41180SOL    HW225548   1.761   4.544   8.057
41181SOL     OW25549   9.591   1.634   0.323
41181SOL    HW125550   9.616   1.714   0.277
41181SOL    HW225551   9.602   1.654   0.416
41182SOL     OW25552   8.953   5.886   3.280
41182SOL    HW125553   9.047   5.897   3.266
41182SOL    HW225554   8.945   5.867   3.373
41183SOL     OW25555   6.460   7.548   4.935
41183SOL    HW125556   6.447   7.491   4.859
41183SOL    HW225557   6.519   7.616   4.904
41184SOL     OW25558   6.263  10.712   1.550
41184SOL    HW125559   6.173  10.687   1.572
41184SOL    HW225560   6.312  10.630   1.553
41185SOL     OW25561  11.006   4.935   4.051
41185SOL    HW125562  11.044   5.018   4.024
41185SOL    HW225563  10.963   4.954   4.134
41186SOL     OW25564   2.876   7.741   1.006
41186SOL    HW125565   2.807   7.767   0.945
41186SOL    HW225566   2.895   7.650   0.983
41187SOL     OW25567   8.787   1.761  10.763
41187SOL    HW125568   8.759   1.852  10.768
41187SOL    HW225569   8.809   1.747  10.670
41188SOL     OW25570   5.429   9.541   9.440
41188SOL    HW125571   5.468   9.458   9.467
41188SOL    HW225572   5.415   9.530   9.345
41189SOL     OW25573   6.554   6.778   2.516
41189SOL    HW125574   6.499   6.836   2.568
41189SOL    HW225575   6.638   6.823   2.510
41190SOL     OW25576   5.935   8.462   0.208
41190SOL    HW125577   6.019   8.463   0.162
41190SOL    HW225578   5.952   8.508   0.290
41191SOL     OW25579   4.412   3.058   2.704
41191SOL    HW125580   4.334   3.044   2.650
41191SOL    HW225581   4.422   3.153   2.708
41192SOL     OW25582   8.919   8.286   2.365
41192SOL    HW125583   8.982   8.350   2.397
41192SOL    HW225584   8.926   8.291   2.269
41193SOL     OW25585   9.175   8.115   2.247
41193SOL    HW125586   9.124   8.178   2.197
41193SOL    HW225587   9.112   8.074   2.306
41194SOL     OW25588   2.633   4.216   6.079
41194SOL    HW125589   2.583   4.281   6.129
41194SOL    HW225590   2.717   4.258   6.062
41195SOL     OW25591   2.785   9.792   0.027
41195SOL    HW125592   2.779   9.699   0.002
41195SOL    HW225593   2.876   9.816   0.007
41196SOL     OW25594  10.020   4.241   6.546
41196SOL    HW125595   9.990   4.329   6.523
41196SOL    HW225596  10.002   4.188   6.468
41197SOL     OW25597   1.955   6.432   3.938
41197SOL    HW125598   1.995   6.514   3.964
41197SOL    HW225599   2.027   6.369   3.938
41198SOL     OW25600   8.775   3.598   5.727
41198SOL    HW125601   8.871   3.593   5.727
41198SOL    HW225602   8.747   3.513   5.691
41199SOL     OW25603   2.178   3.613   4.858
41199SOL    HW125604   2.234   3.555   4.909
41199SOL    HW225605   2.136   3.555   4.794
41200SOL     OW25606   7.537   6.008   0.429
41200SOL    HW125607   7.473   6.066   0.471
41200SOL    HW225608   7.601   6.067   0.390
41201SOL     OW25609   6.656   8.790   9.525
41201SOL    HW125610   6.750   8.795   9.508
41201SOL    HW225611   6.622   8.736   9.453
41202SOL     OW25612   9.015   6.338   5.608
41202SOL    HW125613   8.971   6.396   5.546
41202SOL    HW225614   9.061   6.397   5.668
41203SOL     OW25615   8.129   9.855   9.723
41203SOL    HW125616   8.051   9.908   9.740
41203SOL    HW225617   8.101   9.765   9.740
41204SOL     OW25618   9.471   7.027   1.648
41204SOL    HW125619   9.418   6.953   1.617
41204SOL    HW225620   9.562   6.999   1.632
41205SOL     OW25621   1.734   8.339   4.444
41205SOL    HW125622   1.662   8.321   4.504
41205SOL    HW225623   1.759   8.253   4.410
41206SOL     OW25624   2.665   6.395   7.458
41206SOL    HW125625   2.698   6.421   7.544
41206SOL    HW225626   2.570   6.406   7.464
41207SOL     OW25627   9.408   1.528   9.272
41207SOL    HW125628   9.407   1.461   9.203
41207SOL    HW225629   9.321   1.523   9.311
41208SOL     OW25630   8.810   4.283   1.310
41208SOL    HW125631   8.737   4.284   1.248
41208SOL    HW225632   8.783   4.222   1.379
41209SOL     OW25633   7.374   6.327  10.822
41209SOL    HW125634   7.360   6.382  10.898
41209SOL    HW225635   7.468   6.307  10.823
41210SOL     OW25636   9.975   5.222   4.976
41210SOL    HW125637  10.029   5.269   4.913
41210SOL    HW225638   9.943   5.146   4.927
41211SOL     OW25639   8.651   3.805   8.245
41211SOL    HW125640   8.602   3.834   8.322
41211SOL    HW225641   8.719   3.747   8.280
41212SOL     OW25642   8.096   5.990   1.461
41212SOL    HW125643   8.168   6.044   1.493
41212SOL    HW225644   8.041   6.050   1.410
41213SOL     OW25645   0.550   8.300   1.691
41213SOL    HW125646   0.545   8.308   1.786
41213SOL    HW225647   0.459   8.295   1.662
41214SOL     OW25648   1.212   3.132   0.993
41214SOL    HW125649   1.247   3.050   1.029
41214SOL    HW225650   1.180   3.180   1.069
41215SOL     OW25651   7.549   5.611   2.726
41215SOL    HW125652   7.596   5.662   2.792
41215SOL    HW225653   7.457   5.631   2.740
41216SOL     OW25654   4.495   8.119   6.731
41216SOL    HW125655   4.496   8.117   6.635
41216SOL    HW225656   4.587   8.113   6.756
41217SOL     OW25657   1.373   8.081   9.129
41217SOL    HW125658   1.398   8.136   9.203
41217SOL    HW225659   1.445   8.091   9.066
41218SOL     OW25660   4.969   6.846   2.867
41218SOL    HW125661   5.019   6.807   2.939
41218SOL    HW225662   5.026   6.836   2.791
41219SOL     OW25663   2.602  10.672   3.675
41219SOL    HW125664   2.603  10.592   3.728
41219SOL    HW225665   2.629  10.741   3.735
41220SOL     OW25666   8.289   4.405   3.967
41220SOL    HW125667   8.305   4.369   4.054
41220SOL    HW225668   8.327   4.492   3.969
41221SOL     OW25669  10.650   4.547   5.195
41221SOL    HW125670  10.684   4.619   5.143
41221SOL    HW225671  10.709   4.474   5.176
41222SOL     OW25672   9.913   5.822   5.635
41222SOL    HW125673   9.921   5.841   5.541
41222SOL    HW225674   9.857   5.744   5.638
41223SOL     OW25675   5.411   5.536   5.230
41223SOL    HW125676   5.330   5.492   5.204
41223SOL    HW225677   5.480   5.487   5.185
41224SOL     OW25678   2.429   8.245   0.034
41224SOL    HW125679   2.428   8.226  -0.059
41224SOL    HW225680   2.340   8.275   0.054
41225SOL     OW25681   1.823   6.592   4.290
41225SOL    HW125682   1.774   6.549   4.360
41225SOL    HW225683   1.789   6.553   4.209
41226SOL     OW25684  10.052   9.282   6.191
41226SOL    HW125685  10.042   9.194   6.153
41226SOL    HW225686  10.135   9.314   6.156
41227SOL     OW25687  10.707   3.004   3.698
41227SOL    HW125688  10.757   2.926   3.725
41227SOL    HW225689  10.762   3.046   3.632
41228SOL     OW25690   2.946   2.809   6.117
41228SOL    HW125691   2.988   2.888   6.149
41228SOL    HW225692   2.857   2.836   6.095
41229SOL     OW25693   7.273   5.371   1.668
41229SOL    HW125694   7.349   5.314   1.657
41229SOL    HW225695   7.198   5.311   1.669
41230SOL     OW25696   1.423   3.509   4.303
41230SOL    HW125697   1.429   3.583   4.363
41230SOL    HW225698   1.403   3.548   4.218
41231SOL     OW25699   2.143   3.202   5.896
41231SOL    HW125700   2.077   3.256   5.853
41231SOL    HW225701   2.211   3.189   5.829
41232SOL     OW25702   7.900   7.222   0.926
41232SOL    HW125703   7.827   7.164   0.904
41232SOL    HW225704   7.859   7.308   0.938
41233SOL     OW25705  10.482   4.965   9.389
41233SOL    HW125706  10.421   4.899   9.354
41233SOL    HW225707  10.544   4.914   9.442
41234SOL     OW25708   3.916   3.085   1.958
41234SOL    HW125709   3.888   3.176   1.956
41234SOL    HW225710   3.968   3.077   2.038
41235SOL     OW25711   9.164   9.499   9.832
41235SOL    HW125712   9.171   9.593   9.815
41235SOL    HW225713   9.182   9.458   9.747
41236SOL     OW25714  10.832  10.017   2.771
41236SOL    HW125715  10.755   9.976   2.810
41236SOL    HW225716  10.906   9.968   2.807
41237SOL     OW25717   2.220   5.969   0.692
41237SOL    HW125718   2.192   6.017   0.769
41237SOL    HW225719   2.302   5.926   0.718
41238SOL     OW25720   8.858  10.737  10.208
41238SOL    HW125721   8.890  10.822  10.177
41238SOL    HW225722   8.872  10.739  10.302
41239SOL     OW25723   2.773   7.700   3.459
41239SOL    HW125724   2.803   7.612   3.435
41239SOL    HW225725   2.706   7.720   3.394
41240SOL     OW25726   7.873   8.004   0.165
41240SOL    HW125727   7.957   7.960   0.152
41240SOL    HW225728   7.808   7.936   0.149
41241SOL     OW25729   0.232   0.659  10.379
41241SOL    HW125730   0.254   0.596  10.448
41241SOL    HW225731   0.312   0.709  10.365
41242SOL     OW25732   0.578   8.121   6.533
41242SOL    HW125733   0.634   8.188   6.493
41242SOL    HW225734   0.620   8.038   6.509
41243SOL     OW25735  10.120   0.093   3.835
41243SOL    HW125736  10.081   0.010   3.807
41243SOL    HW225737  10.215   0.078   3.830
41244SOL     OW25738  10.704   6.779   5.920
41244SOL    HW125739  10.621   6.733   5.929
41244SOL    HW225740  10.698   6.822   5.834
41245SOL     OW25741   0.233   7.857   4.163
41245SOL    HW125742   0.236   7.788   4.097
41245SOL    HW225743   0.146   7.848   4.203
41246SOL     OW25744  10.909   7.657   2.008
41246SOL    HW125745  10.949   7.657   2.095
41246SOL    HW225746  10.815   7.659   2.025
41247SOL     OW25747   6.576   0.132   7.897
41247SOL    HW125748   6.529   0.215   7.893
41247SOL    HW225749   6.665   0.153   7.867
41248SOL     OW25750   8.576   6.078   0.027
41248SOL    HW125751   8.639   6.150   0.030
41248SOL    HW225752   8.517   6.095   0.100
41249SOL     OW25753   0.561   6.901   5.895
41249SOL    HW125754   0.632   6.963   5.912
41249SOL    HW225755   0.527   6.879   5.981
41250SOL     OW25756   8.248   6.987   4.508
41250SOL    HW125757   8.301   7.055   4.549
41250SOL    HW225758   8.158   7.015   4.523
41251SOL     OW25759   0.923   8.740   4.871
41251SOL    HW125760   1.003   8.781   4.904
41251SOL    HW225761   0.873   8.718   4.949
41252SOL     OW25762   3.720   0.944   8.179
41252SOL    HW125763   3.630   0.933   8.149
41252SOL    HW225764   3.745   0.857   8.211
41253SOL     OW25765   9.637   9.361   3.672
41253SOL    HW125766   9.545   9.336   3.680
41253SOL    HW225767   9.636   9.439   3.617
41254SOL     OW25768   9.778   4.718   6.323
41254SOL    HW125769   9.797   4.775   6.249
41254SOL    HW225770   9.694   4.678   6.301
41255SOL     OW25771  10.978   5.301   3.377
41255SOL    HW125772  10.922   5.226   3.358
41255SOL    HW225773  10.932   5.349   3.446
41256SOL     OW25774   7.481   5.251   8.934
41256SOL    HW125775   7.486   5.308   9.010
41256SOL    HW225776   7.544   5.287   8.872
41257SOL     OW25777   3.470   6.929   0.498
41257SOL    HW125778   3.552   6.975   0.516
41257SOL    HW225779   3.404   6.977   0.547
41258SOL     OW25780   1.241   7.870   0.278
41258SOL    HW125781   1.259   7.776   0.275
41258SOL    HW225782   1.229   7.894   0.186
41259SOL     OW25783   3.350   9.730   2.250
41259SOL    HW125784   3.398   9.672   2.190
41259SOL    HW225785   3.380   9.818   2.227
41260SOL     OW25786   8.907   1.357   4.030
41260SOL    HW125787   8.841   1.380   4.095
41260SOL    HW225788   8.870   1.281   3.985
41261SOL     OW25789   9.021   7.330   7.170
41261SOL    HW125790   8.973   7.412   7.164
41261SOL    HW225791   9.100   7.352   7.220
41262SOL     OW25792   4.707   5.879   4.145
41262SOL    HW125793   4.761   5.804   4.173
41262SOL    HW225794   4.765   5.955   4.154
41263SOL     OW25795   0.358   4.719   0.094
41263SOL    HW125796   0.428   4.667   0.054
41263SOL    HW225797   0.355   4.689   0.185
41264SOL     OW25798  10.245   9.409   0.629
41264SOL    HW125799  10.287   9.340   0.576
41264SOL    HW225800  10.302   9.485   0.618
41265SOL     OW25801   8.423  10.676   7.241
41265SOL    HW125802   8.382  10.625   7.311
41265SOL    HW225803   8.355  10.737   7.213
41266SOL     OW25804   8.750   8.157   3.815
41266SOL    HW125805   8.812   8.121   3.751
41266SOL    HW225806   8.740   8.086   3.879
41267SOL     OW25807   7.117   3.145   0.860
41267SOL    HW125808   7.115   3.139   0.955
41267SOL    HW225809   7.100   3.055   0.830
41268SOL     OW25810   7.244   9.282   0.300
41268SOL    HW125811   7.222   9.292   0.392
41268SOL    HW225812   7.184   9.341   0.254
41269SOL     OW25813   4.478  10.623   1.043
41269SOL    HW125814   4.420  10.547   1.039
41269SOL    HW225815   4.513  10.622   1.132
41270SOL     OW25816   8.481  10.414   9.701
41270SOL    HW125817   8.467  10.467   9.779
41270SOL    HW225818   8.542  10.346   9.728
41271SOL     OW25819  10.999   5.729   0.263
41271SOL    HW125820  11.056   5.653   0.276
41271SOL    HW225821  10.980   5.760   0.351
41272SOL     OW25822   0.250   9.863  11.095
41272SOL    HW125823   0.244   9.808  11.017
41272SOL    HW225824   0.164   9.905  11.101
41273SOL     OW25825   2.968   2.998   1.433
41273SOL    HW125826   2.904   3.066   1.414
41273SOL    HW225827   3.027   3.036   1.498
41274SOL     OW25828   8.565   9.478   7.730
41274SOL    HW125829   8.497   9.419   7.762
41274SOL    HW225830   8.643   9.453   7.780
41275SOL     OW25831   9.201   3.012  10.390
41275SOL    HW125832   9.212   2.983  10.480
41275SOL    HW225833   9.110   2.990  10.369
41276SOL     OW25834   8.661   8.570   7.718
41276SOL    HW125835   8.733   8.543   7.661
41276SOL    HW225836   8.683   8.659   7.745
41277SOL     OW25837   5.058  10.694   7.005
41277SOL    HW125838   5.140  10.743   7.003
41277SOL    HW225839   5.051  10.655   6.918
41278SOL     OW25840   1.879   4.196   7.275
41278SOL    HW125841   1.864   4.113   7.320
41278SOL    HW225842   1.970   4.219   7.296
41279SOL     OW25843   0.191   3.622   0.729
41279SOL    HW125844   0.163   3.543   0.776
41279SOL    HW225845   0.249   3.589   0.660
41280SOL     OW25846   3.028   4.390   3.409
41280SOL    HW125847   2.998   4.300   3.423
41280SOL    HW225848   2.955   4.433   3.365
41281SOL     OW25849   0.533   7.596   3.816
41281SOL    HW125850   0.604   7.658   3.797
41281SOL    HW225851   0.576   7.524   3.863
41282SOL     OW25852   0.072   8.891   4.761
41282SOL    HW125853   0.106   8.830   4.695
41282SOL    HW225854   0.005   8.942   4.714
41283SOL     OW25855   0.448   1.742   4.215
41283SOL    HW125856   0.440   1.661   4.265
41283SOL    HW225857   0.508   1.719   4.143
41284SOL     OW25858   3.067   6.016   6.599
41284SOL    HW125859   3.097   6.107   6.597
41284SOL    HW225860   3.088   5.985   6.687
41285SOL     OW25861   0.840   6.605   1.254
41285SOL    HW125862   0.877   6.592   1.341
41285SOL    HW225863   0.760   6.654   1.269
41286SOL     OW25864   7.875   4.735   9.979
41286SOL    HW125865   7.833   4.703   9.899
41286SOL    HW225866   7.831   4.818   9.998
41287SOL     OW25867  10.350   9.786  10.607
41287SOL    HW125868  10.357   9.721  10.536
41287SOL    HW225869  10.293   9.854  10.571
41288SOL     OW25870   9.933   9.245  10.678
41288SOL    HW125871   9.952   9.267  10.587
41288SOL    HW225872  10.009   9.276  10.726
41289SOL     OW25873   5.606   9.883   8.458
41289SOL    HW125874   5.519   9.915   8.434
41289SOL    HW225875   5.649   9.866   8.374
41290SOL     OW25876   5.645   6.525   4.202
41290SOL    HW125877   5.651   6.609   4.157
41290SOL    HW225878   5.725   6.520   4.254
41291SOL     OW25879   0.890   7.038   1.480
41291SOL    HW125880   0.855   7.111   1.530
41291SOL    HW225881   0.916   6.974   1.546
41292SOL     OW25882   2.218   7.523   6.559
41292SOL    HW125883   2.123   7.511   6.565
41292SOL    HW225884   2.229   7.607   6.515
41293SOL     OW25885  10.406   6.693  10.598
41293SOL    HW125886  10.454   6.718  10.677
41293SOL    HW225887  10.421   6.765  10.536
41294SOL     OW25888   0.472   4.093   2.302
41294SOL    HW125889   0.474   4.120   2.394
41294SOL    HW225890   0.403   4.146   2.263
41295SOL     OW25891   6.418   5.126   1.651
41295SOL    HW125892   6.461   5.078   1.579
41295SOL    HW225893   6.406   5.214   1.617
41296SOL     OW25894   2.223   8.812   2.919
41296SOL    HW125895   2.297   8.862   2.953
41296SOL    HW225896   2.261   8.758   2.850
41297SOL     OW25897  10.162   7.742   1.265
41297SOL    HW125898  10.180   7.743   1.171
41297SOL    HW225899  10.242   7.708   1.304
41298SOL     OW25900   2.867   6.737   8.509
41298SOL    HW125901   2.814   6.801   8.461
41298SOL    HW225902   2.871   6.771   8.598
41299SOL     OW25903   1.144   4.834   1.661
41299SOL    HW125904   1.122   4.835   1.568
41299SOL    HW225905   1.178   4.746   1.677
41300SOL     OW25906   2.717   9.906   5.221
41300SOL    HW125907   2.653   9.943   5.160
41300SOL    HW225908   2.738   9.978   5.280
41301SOL     OW25909  11.002   0.482   8.389
41301SOL    HW125910  10.928   0.446   8.438
41301SOL    HW225911  10.970   0.565   8.354
41302SOL     OW25912   3.123   4.999   6.552
41302SOL    HW125913   3.112   4.908   6.582
41302SOL    HW225914   3.072   5.051   6.614
41303SOL     OW25915   3.881   5.290   1.338
41303SOL    HW125916   3.806   5.264   1.391
41303SOL    HW225917   3.845   5.305   1.250
41304SOL     OW25918   7.492   6.568   5.371
41304SOL    HW125919   7.470   6.526   5.288
41304SOL    HW225920   7.587   6.578   5.367
41305SOL     OW25921   6.404   1.837   2.520
41305SOL    HW125922   6.494   1.823   2.551
41305SOL    HW225923   6.349   1.814   2.595
41306SOL     OW25924   3.667   1.927   0.880
41306SOL    HW125925   3.671   1.860   0.948
41306SOL    HW225926   3.574   1.949   0.874
41307SOL     OW25927   7.564   0.760   6.407
41307SOL    HW125928   7.488   0.703   6.393
41307SOL    HW225929   7.625   0.737   6.337
41308SOL     OW25930   3.183   9.658   9.927
41308SOL    HW125931   3.097   9.626   9.900
41308SOL    HW225932   3.213   9.594   9.991
41309SOL     OW25933   6.926   9.966   7.284
41309SOL    HW125934   6.875   9.896   7.326
41309SOL    HW225935   6.994   9.919   7.235
41310SOL     OW25936   4.694   8.040   2.146
41310SOL    HW125937   4.599   8.034   2.145
41310SOL    HW225938   4.713   8.133   2.133
41311SOL     OW25939   6.070   0.800   8.064
41311SOL    HW125940   6.050   0.891   8.086
41311SOL    HW225941   5.994   0.770   8.014
41312SOL     OW25942   7.290   7.449   5.811
41312SOL    HW125943   7.294   7.409   5.724
41312SOL    HW225944   7.220   7.401   5.856
41313SOL     OW25945   0.174   5.784   4.103
41313SOL    HW125946   0.241   5.830   4.154
41313SOL    HW225947   0.218   5.761   4.021
41314SOL     OW25948   8.836   8.200   1.305
41314SOL    HW125949   8.784   8.119   1.304
41314SOL    HW225950   8.911   8.179   1.361
41315SOL     OW25951   2.327   4.404  10.668
41315SOL    HW125952   2.320   4.371  10.578
41315SOL    HW225953   2.362   4.492  10.658
41316SOL     OW25954   9.060   5.608   6.822
41316SOL    HW125955   9.151   5.580   6.813
41316SOL    HW225956   9.025   5.604   6.733
41317SOL     OW25957   1.492   9.672   0.750
41317SOL    HW125958   1.424   9.644   0.688
41317SOL    HW225959   1.532   9.749   0.709
41318SOL     OW25960   9.376   1.387   9.038
41318SOL    HW125961   9.359   1.320   8.971
41318SOL    HW225962   9.293   1.434   9.047
41319SOL     OW25963   0.451   8.215   4.454
41319SOL    HW125964   0.517   8.277   4.424
41319SOL    HW225965   0.472   8.134   4.407
41320SOL     OW25966   0.806   6.710  10.278
41320SOL    HW125967   0.848   6.689  10.361
41320SOL    HW225968   0.781   6.802  10.286
41321SOL     OW25969   6.832   0.651   5.838
41321SOL    HW125970   6.759   0.664   5.778
41321SOL    HW225971   6.906   0.693   5.794
41322SOL     OW25972  10.124   6.920   3.630
41322SOL    HW125973  10.086   6.842   3.671
41322SOL    HW225974  10.204   6.937   3.680
41323SOL     OW25975   5.279  10.633   3.617
41323SOL    HW125976   5.194  10.676   3.613
41323SOL    HW225977   5.270  10.556   3.561
41324SOL     OW25978   7.827   4.716   4.291
41324SOL    HW125979   7.776   4.657   4.236
41324SOL    HW225980   7.763   4.775   4.330
41325SOL     OW25981   7.486   6.696   1.164
41325SOL    HW125982   7.554   6.708   1.097
41325SOL    HW225983   7.421   6.640   1.122
41326SOL     OW25984   6.074   0.117  10.976
41326SOL    HW125985   6.146   0.054  10.982
41326SOL    HW225986   6.113   0.200  11.001
41327SOL     OW25987  10.973   6.897   5.039
41327SOL    HW125988  10.984   6.808   5.074
41327SOL    HW225989  11.058   6.939   5.052
41328SOL     OW25990   7.729   9.177   2.971
41328SOL    HW125991   7.786   9.253   2.982
41328SOL    HW225992   7.729   9.160   2.876
41329SOL     OW25993   2.097   2.944   6.834
41329SOL    HW125994   2.040   2.930   6.909
41329SOL    HW225995   2.050   3.005   6.778
41330SOL     OW25996   1.662   6.927   2.887
41330SOL    HW125997   1.753   6.944   2.861
41330SOL    HW225998   1.668   6.898   2.978
41331SOL     OW25999   8.405   3.098   1.815
41331SOL    HW126000   8.486   3.111   1.765
41331SOL    HW226001   8.418   3.015   1.861
41332SOL     OW26002   8.523   6.149   0.745
41332SOL    HW126003   8.542   6.092   0.670
41332SOL    HW226004   8.442   6.114   0.781
41333SOL     OW26005   4.867   7.489   7.973
41333SOL    HW126006   4.776   7.495   7.945
41333SOL    HW226007   4.896   7.403   7.940
41334SOL     OW26008   2.345   5.818   3.055
41334SOL    HW126009   2.305   5.871   2.986
41334SOL    HW226010   2.409   5.876   3.097
41335SOL     OW26011  10.866   8.853   9.215
41335SOL    HW126012  10.899   8.910   9.146
41335SOL    HW226013  10.800   8.905   9.260
41336SOL     OW26014   4.561   7.094   6.225
41336SOL    HW126015   4.592   7.051   6.305
41336SOL    HW226016   4.553   7.186   6.248
41337SOL     OW26017   3.540   4.120   9.201
41337SOL    HW126018   3.607   4.053   9.183
41337SOL    HW226019   3.574   4.168   9.276
41338SOL     OW26020   9.011   2.535   5.581
41338SOL    HW126021   8.992   2.443   5.599
41338SOL    HW226022   9.022   2.575   5.667
41339SOL     OW26023   4.202   3.178   5.971
41339SOL    HW126024   4.285   3.156   6.014
41339SOL    HW226025   4.168   3.252   6.020
41340SOL     OW26026  10.310   3.327   6.665
41340SOL    HW126027  10.352   3.407   6.634
41340SOL    HW226028  10.263   3.294   6.588
41341SOL     OW26029   3.922   5.564   4.735
41341SOL    HW126030   3.868   5.514   4.796
41341SOL    HW226031   3.982   5.499   4.698
41342SOL     OW26032   8.161   7.958   5.210
41342SOL    HW126033   8.235   7.985   5.156
41342SOL    HW226034   8.084   7.990   5.163
41343SOL     OW26035   2.287   5.931   3.684
41343SOL    HW126036   2.267   5.968   3.598
41343SOL    HW226037   2.221   5.862   3.696
41344SOL     OW26038   8.308   8.423   3.546
41344SOL    HW126039   8.239   8.375   3.592
41344SOL    HW226040   8.361   8.463   3.615
41345SOL     OW26041   9.831   7.866   3.206
41345SOL    HW126042   9.758   7.911   3.248
41345SOL    HW226043   9.889   7.840   3.278
41346SOL     OW26044   0.150   3.031   9.158
41346SOL    HW126045   0.096   2.957   9.186
41346SOL    HW226046   0.132   3.100   9.222
41347SOL     OW26047   6.981  10.337   8.692
41347SOL    HW126048   6.905  10.290   8.726
41347SOL    HW226049   7.052  10.273   8.696
41348SOL     OW26050   0.478   8.652   7.456
41348SOL    HW126051   0.527   8.729   7.427
41348SOL    HW226052   0.477   8.658   7.551
41349SOL     OW26053   8.249   7.509  10.653
41349SOL    HW126054   8.328   7.461  10.680
41349SOL    HW226055   8.282   7.594  10.623
41350SOL     OW26056  10.694   6.568   3.520
41350SOL    HW126057  10.782   6.603   3.509
41350SOL    HW226058  10.673   6.584   3.612
41351SOL     OW26059   3.241   2.246   5.997
41351SOL    HW126060   3.247   2.151   6.010
41351SOL    HW226061   3.303   2.265   5.926
41352SOL     OW26062   2.023   1.318  10.917
41352SOL    HW126063   1.935   1.310  10.881
41352SOL    HW226064   2.039   1.234  10.960
41353SOL     OW26065  11.023   6.426   7.467
41353SOL    HW126066  11.102   6.465   7.504
41353SOL    HW226067  11.039   6.423   7.372
41354SOL     OW26068   9.054   2.404   5.026
41354SOL    HW126069   9.051   2.349   4.947
41354SOL    HW226070   8.966   2.399   5.062
41355SOL     OW26071  10.534   6.342   5.670
41355SOL    HW126072  10.615   6.375   5.630
41355SOL    HW226073  10.533   6.249   5.646
41356SOL     OW26074   5.086   6.181   8.506
41356SOL    HW126075   5.027   6.112   8.535
41356SOL    HW226076   5.068   6.254   8.564
41357SOL     OW26077   5.647   6.889  10.799
41357SOL    HW126078   5.653   6.981  10.774
41357SOL    HW226079   5.613   6.845  10.721
41358SOL     OW26080   0.287   4.146   9.363
41358SOL    HW126081   0.334   4.108   9.437
41358SOL    HW226082   0.220   4.202   9.402
41359SOL     OW26083   8.601   0.229   7.702
41359SOL    HW126084   8.626   0.234   7.794
41359SOL    HW226085   8.641   0.306   7.662
41360SOL     OW26086   0.299   2.882   0.261
41360SOL    HW126087   0.376   2.829   0.284
41360SOL    HW226088   0.244   2.822   0.210
41361SOL     OW26089   1.567   4.560   6.048
41361SOL    HW126090   1.522   4.644   6.038
41361SOL    HW226091   1.502   4.502   6.088
41362SOL     OW26092   2.722   2.318   6.983
41362SOL    HW126093   2.745   2.238   7.030
41362SOL    HW226094   2.798   2.375   6.995
41363SOL     OW26095   0.497   0.240   7.436
41363SOL    HW126096   0.494   0.291   7.516
41363SOL    HW226097   0.522   0.302   7.368
41364SOL     OW26098   3.087   7.712   0.069
41364SOL    HW126099   3.045   7.772   0.008
41364SOL    HW226100   3.049   7.626   0.049
41365SOL     OW26101   9.489   5.876   1.666
41365SOL    HW126102   9.514   5.794   1.710
41365SOL    HW226103   9.406   5.855   1.623
41366SOL     OW26104   4.549   7.534   5.820
41366SOL    HW126105   4.565   7.456   5.767
41366SOL    HW226106   4.457   7.555   5.804
41367SOL     OW26107   9.147  10.684  10.653
41367SOL    HW126108   9.072  10.646  10.608
41367SOL    HW226109   9.147  10.776  10.626
41368SOL     OW26110   1.296   4.432   5.367
41368SOL    HW126111   1.377   4.468   5.404
41368SOL    HW226112   1.326   4.374   5.297
41369SOL     OW26113   1.910  10.726   0.761
41369SOL    HW126114   1.839  10.763   0.814
41369SOL    HW226115   1.975  10.796   0.755
41370SOL     OW26116   9.984   9.388   0.708
41370SOL    HW126117  10.076   9.396   0.681
41370SOL    HW226118   9.941   9.349   0.632
41371SOL     OW26119  10.460   4.721   4.796
41371SOL    HW126120  10.488   4.677   4.876
41371SOL    HW226121  10.541   4.749   4.754
41372SOL     OW26122   9.029   5.534   4.127
41372SOL    HW126123   9.017   5.455   4.180
41372SOL    HW226124   8.945   5.580   4.132
41373SOL     OW26125   2.330   5.640   8.393
41373SOL    HW126126   2.367   5.605   8.474
41373SOL    HW226127   2.236   5.621   8.398
41374SOL     OW26128   6.201   1.587   7.448
41374SOL    HW126129   6.217   1.543   7.364
41374SOL    HW226130   6.164   1.672   7.423
41375SOL     OW26131   3.488   9.708   5.746
41375SOL    HW126132   3.430   9.685   5.673
41375SOL    HW226133   3.441   9.679   5.824
41376SOL     OW26134   0.521  10.833   9.796
41376SOL    HW126135   0.521  10.855   9.889
41376SOL    HW226136   0.497  10.741   9.793
41377SOL     OW26137   5.720   3.502   0.967
41377SOL    HW126138   5.709   3.586   0.922
41377SOL    HW226139   5.774   3.450   0.907
41378SOL     OW26140   1.808   7.556   6.098
41378SOL    HW126141   1.717   7.563   6.124
41378SOL    HW226142   1.805   7.541   6.003
41379SOL     OW26143  10.683   8.258   1.800
41379SOL    HW126144  10.707   8.201   1.873
41379SOL    HW226145  10.588   8.254   1.797
41380SOL     OW26146   9.529   8.208   7.074
41380SOL    HW126147   9.538   8.252   7.158
41380SOL    HW226148   9.485   8.125   7.094
41381SOL     OW26149   6.418   5.621   3.225
41381SOL    HW126150   6.404   5.580   3.310
41381SOL    HW226151   6.348   5.586   3.170
41382SOL     OW26152   1.208  10.196   9.806
41382SOL    HW126153   1.179  10.182   9.716
41382SOL    HW226154   1.226  10.108   9.839
41383SOL     OW26155   9.025   5.805  10.227
41383SOL    HW126156   9.035   5.740  10.156
41383SOL    HW226157   8.956   5.769  10.282
41384SOL     OW26158   2.449   6.813   4.644
41384SOL    HW126159   2.382   6.745   4.637
41384SOL    HW226160   2.478   6.809   4.735
41385SOL     OW26161   0.909   7.616   2.305
41385SOL    HW126162   0.934   7.686   2.365
41385SOL    HW226163   0.828   7.646   2.265
41386SOL     OW26164   9.947   4.456   2.683
41386SOL    HW126165   9.870   4.468   2.627
41386SOL    HW226166  10.022   4.470   2.625
41387SOL     OW26167   1.248   8.012   8.204
41387SOL    HW126168   1.299   8.068   8.145
41387SOL    HW226169   1.308   7.991   8.275
41388SOL     OW26170   9.314   5.462   5.950
41388SOL    HW126171   9.326   5.541   5.898
41388SOL    HW226172   9.293   5.494   6.037
41389SOL     OW26173   3.220   3.575   4.644
41389SOL    HW126174   3.148   3.616   4.596
41389SOL    HW226175   3.292   3.638   4.638
41390SOL     OW26176   9.278   8.883   0.888
41390SOL    HW126177   9.333   8.864   0.811
41390SOL    HW226178   9.261   8.797   0.926
41391SOL     OW26179   3.868   5.594   2.828
41391SOL    HW126180   3.867   5.506   2.867
41391SOL    HW226181   3.785   5.600   2.781
41392SOL     OW26182   3.715   4.171   2.041
41392SOL    HW126183   3.673   4.251   2.071
41392SOL    HW226184   3.736   4.188   1.949
41393SOL     OW26185   9.286   6.200   3.362
41393SOL    HW126186   9.232   6.263   3.315
41393SOL    HW226187   9.230   6.167   3.432
41394SOL     OW26188   7.507   4.998  10.794
41394SOL    HW126189   7.492   5.045  10.712
41394SOL    HW226190   7.533   4.910  10.766
41395SOL     OW26191   6.412  10.856  10.497
41395SOL    HW126192   6.507  10.856  10.483
41395SOL    HW226193   6.375  10.878  10.411
41396SOL     OW26194   4.360   8.369   6.690
41396SOL    HW126195   4.428   8.396   6.628
41396SOL    HW226196   4.401   8.299   6.740
41397SOL     OW26197   1.566   1.043   2.915
41397SOL    HW126198   1.479   1.002   2.914
41397SOL    HW226199   1.626   0.973   2.888
41398SOL     OW26200   0.268   1.125   1.113
41398SOL    HW126201   0.230   1.093   1.031
41398SOL    HW226202   0.223   1.208   1.130
41399SOL     OW26203   4.536   8.388   4.670
41399SOL    HW126204   4.629   8.407   4.685
41399SOL    HW226205   4.536   8.301   4.629
41400SOL     OW26206   2.584   7.198   0.230
41400SOL    HW126207   2.655   7.139   0.204
41400SOL    HW226208   2.556   7.165   0.315
41401SOL     OW26209   4.219   2.426   4.911
41401SOL    HW126210   4.266   2.366   4.969
41401SOL    HW226211   4.271   2.425   4.830
41402SOL     OW26212   5.821   8.644   9.575
41402SOL    HW126213   5.777   8.604   9.499
41402SOL    HW226214   5.776   8.607   9.651
41403SOL     OW26215  10.478   4.663   9.926
41403SOL    HW126216  10.516   4.682  10.011
41403SOL    HW226217  10.435   4.578   9.937
41404SOL     OW26218  10.067   1.261   8.507
41404SOL    HW126219  10.115   1.267   8.424
41404SOL    HW226220  10.125   1.303   8.571
41405SOL     OW26221   2.495   8.458   1.488
41405SOL    HW126222   2.475   8.492   1.401
41405SOL    HW226223   2.500   8.535   1.544
41406SOL     OW26224   4.675   9.231   8.562
41406SOL    HW126225   4.660   9.292   8.490
41406SOL    HW226226   4.769   9.238   8.580
41407SOL     OW26227   8.132   4.959   7.796
41407SOL    HW126228   8.083   5.041   7.798
41407SOL    HW226229   8.097   4.912   7.720
41408SOL     OW26230   4.733   8.494   9.373
41408SOL    HW126231   4.725   8.550   9.296
41408SOL    HW226232   4.670   8.529   9.436
41409SOL     OW26233   6.106   0.630   0.719
41409SOL    HW126234   6.063   0.567   0.660
41409SOL    HW226235   6.189   0.649   0.676
41410SOL     OW26236   2.843   4.004  10.250
41410SOL    HW126237   2.922   4.056  10.237
41410SOL    HW226238   2.862   3.921  10.206
41411SOL     OW26239  10.705   4.475   8.992
41411SOL    HW126240  10.693   4.387   9.029
41411SOL    HW226241  10.642   4.479   8.920
41412SOL     OW26242   4.847   7.769   7.643
41412SOL    HW126243   4.893   7.847   7.674
41412SOL    HW226244   4.758   7.779   7.677
41413SOL     OW26245   8.710  10.002   2.823
41413SOL    HW126246   8.779  10.020   2.759
41413SOL    HW226247   8.697  10.085   2.869
41414SOL     OW26248   6.572   6.636   9.567
41414SOL    HW126249   6.499   6.670   9.618
41414SOL    HW226250   6.575   6.691   9.489
41415SOL     OW26251   9.886   2.882   3.229
41415SOL    HW126252   9.809   2.852   3.278
41415SOL    HW226253   9.959   2.872   3.290
41416SOL     OW26254   0.555   6.378  10.967
41416SOL    HW126255   0.525   6.469  10.969
41416SOL    HW226256   0.634   6.380  10.912
41417SOL     OW26257   6.779   1.086   7.470
41417SOL    HW126258   6.769   1.137   7.389
41417SOL    HW226259   6.769   1.150   7.540
41418SOL     OW26260   7.976  11.062  10.348
41418SOL    HW126261   7.971  11.148  10.305
41418SOL    HW226262   8.001  11.002  10.278
41419SOL     OW26263   2.282   4.956   8.550
41419SOL    HW126264   2.260   4.864   8.532
41419SOL    HW226265   2.378   4.957   8.554
41420SOL     OW26266  10.759   1.874   8.423
41420SOL    HW126267  10.782   1.880   8.515
41420SOL    HW226268  10.663   1.874   8.422
41421SOL     OW26269   2.983   6.565   4.396
41421SOL    HW126270   3.052   6.568   4.329
41421SOL    HW226271   2.909   6.523   4.352
41422SOL     OW26272   2.364   8.801   5.295
41422SOL    HW126273   2.337   8.830   5.208
41422SOL    HW226274   2.459   8.792   5.289
41423SOL     OW26275   0.403   8.009   4.883
41423SOL    HW126276   0.423   8.102   4.881
41423SOL    HW226277   0.457   7.971   4.813
41424SOL     OW26278   9.336   5.450   8.606
41424SOL    HW126279   9.353   5.540   8.632
41424SOL    HW226280   9.250   5.453   8.564
41425SOL     OW26281   0.912  10.247   6.847
41425SOL    HW126282   0.972  10.229   6.775
41425SOL    HW226283   0.967  10.243   6.925
41426SOL     OW26284   3.427   9.688   2.503
41426SOL    HW126285   3.335   9.667   2.517
41426SOL    HW226286   3.435   9.698   2.408
41427SOL     OW26287   0.813   8.216   2.186
41427SOL    HW126288   0.900   8.182   2.208
41427SOL    HW226289   0.760   8.198   2.263
41428SOL     OW26290   7.953  10.172   3.691
41428SOL    HW126291   7.985  10.224   3.764
41428SOL    HW226292   7.980  10.221   3.613
41429SOL     OW26293   2.017   9.500   4.086
41429SOL    HW126294   2.062   9.584   4.078
41429SOL    HW226295   2.060   9.443   4.022
41430SOL     OW26296   6.989   4.850  10.338
41430SOL    HW126297   7.047   4.795  10.284
41430SOL    HW226298   7.040   4.929  10.356
41431SOL     OW26299   0.332   7.146   4.508
41431SOL    HW126300   0.257   7.087   4.501
41431SOL    HW226301   0.328   7.200   4.429
41432SOL     OW26302   0.378   6.934  10.086
41432SOL    HW126303   0.369   7.028  10.102
41432SOL    HW226304   0.461   6.925  10.040
41433SOL     OW26305   5.631   5.504   2.514
41433SOL    HW126306   5.722   5.521   2.538
41433SOL    HW226307   5.634   5.420   2.468
41434SOL     OW26308   7.956   0.151   7.712
41434SOL    HW126309   7.876   0.124   7.757
41434SOL    HW226310   8.026   0.101   7.755
41435SOL     OW26311   8.976   6.786   6.200
41435SOL    HW126312   9.061   6.801   6.159
41435SOL    HW226313   8.997   6.759   6.289
41436SOL     OW26314   9.988   1.539   5.080
41436SOL    HW126315  10.069   1.549   5.030
41436SOL    HW226316   9.928   1.494   5.020
41437SOL     OW26317   5.313  10.306   9.415
41437SOL    HW126318   5.232  10.282   9.460
41437SOL    HW226319   5.303  10.399   9.396
41438SOL     OW26320  11.007   1.906  10.292
41438SOL    HW126321  11.008   1.845  10.365
41438SOL    HW226322  10.920   1.946  10.294
41439SOL     OW26323   3.554   6.620   9.781
41439SOL    HW126324   3.577   6.702   9.737
41439SOL    HW226325   3.624   6.607   9.845
41440SOL     OW26326   7.290   2.355   3.072
41440SOL    HW126327   7.198   2.338   3.055
41440SOL    HW226328   7.323   2.393   2.990
41441SOL     OW26329   3.821   9.151   9.035
41441SOL    HW126330   3.805   9.066   8.994
41441SOL    HW226331   3.786   9.142   9.123
41442SOL     OW26332   3.831   9.528   6.488
41442SOL    HW126333   3.807   9.494   6.574
41442SOL    HW226334   3.794   9.616   6.485
41443SOL     OW26335   6.199   3.684   4.931
41443SOL    HW126336   6.240   3.757   4.885
41443SOL    HW226337   6.251   3.673   5.010
41444SOL     OW26338   1.686   8.389   6.077
41444SOL    HW126339   1.724   8.444   6.008
41444SOL    HW226340   1.706   8.299   6.050
41445SOL     OW26341   8.853   7.985   0.682
41445SOL    HW126342   8.792   7.950   0.746
41445SOL    HW226343   8.799   8.041   0.626
41446SOL     OW26344  10.609   8.735   7.749
41446SOL    HW126345  10.696   8.694   7.751
41446SOL    HW226346  10.550   8.668   7.783
41447SOL     OW26347   0.663   3.931   4.213
41447SOL    HW126348   0.755   3.940   4.188
41447SOL    HW226349   0.619   4.002   4.168
41448SOL     OW26350   6.400   6.763   5.409
41448SOL    HW126351   6.490   6.746   5.437
41448SOL    HW226352   6.387   6.704   5.334
41449SOL     OW26353  10.520   7.232  10.535
41449SOL    HW126354  10.553   7.314  10.499
41449SOL    HW226355  10.496   7.253  10.625
41450SOL     OW26356  10.902   8.245   4.704
41450SOL    HW126357  10.869   8.272   4.789
41450SOL    HW226358  10.870   8.155   4.693
41451SOL     OW26359   8.166   6.490   0.326
41451SOL    HW126360   8.219   6.412   0.308
41451SOL    HW226361   8.230   6.558   0.346
41452SOL     OW26362   4.636   7.035   9.922
41452SOL    HW126363   4.583   7.014   9.844
41452SOL    HW226364   4.585   7.101   9.969
41453SOL     OW26365   8.104  10.601  10.125
41453SOL    HW126366   8.129  10.572  10.037
41453SOL    HW226367   8.069  10.522  10.167
41454SOL     OW26368   0.091   5.220   4.430
41454SOL    HW126369   0.141   5.156   4.379
41454SOL    HW226370   0.136   5.303   4.416
41455SOL     OW26371   6.313   8.661   1.710
41455SOL    HW126372   6.341   8.740   1.756
41455SOL    HW226373   6.288   8.691   1.622
41456SOL     OW26374   8.286   9.617   3.394
41456SOL    HW126375   8.296   9.526   3.365
41456SOL    HW226376   8.340   9.623   3.473
41457SOL     OW26377   0.655   3.077   6.722
41457SOL    HW126378   0.656   3.164   6.761
41457SOL    HW226379   0.676   3.017   6.794
41458SOL     OW26380   7.464   9.104   6.355
41458SOL    HW126381   7.383   9.080   6.399
41458SOL    HW226382   7.453   9.071   6.265
41459SOL     OW26383   2.363   7.530   6.781
41459SOL    HW126384   2.323   7.517   6.867
41459SOL    HW226385   2.295   7.503   6.719
41460SOL     OW26386   5.014   2.727   5.516
41460SOL    HW126387   5.052   2.791   5.575
41460SOL    HW226388   4.973   2.779   5.447
41461SOL     OW26389   8.896   9.651   2.340
41461SOL    HW126390   8.820   9.600   2.369
41461SOL    HW226391   8.914   9.619   2.251
41462SOL     OW26392  10.723   9.200   4.401
41462SOL    HW126393  10.779   9.226   4.473
41462SOL    HW226394  10.776   9.138   4.351
41463SOL     OW26395   9.587  10.572   0.954
41463SOL    HW126396   9.662  10.518   0.928
41463SOL    HW226397   9.546  10.597   0.871
41464SOL     OW26398   0.931   6.976   6.763
41464SOL    HW126399   0.885   7.060   6.770
41464SOL    HW226400   0.876   6.924   6.704
41465SOL     OW26401   3.365   6.807   4.192
41465SOL    HW126402   3.358   6.811   4.096
41465SOL    HW226403   3.425   6.734   4.208
41466SOL     OW26404   1.116   4.952   0.660
41466SOL    HW126405   1.145   5.018   0.597
41466SOL    HW226406   1.023   4.942   0.643
41467SOL     OW26407   8.285   7.313   2.256
41467SOL    HW126408   8.221   7.370   2.214
41467SOL    HW226409   8.352   7.299   2.188
41468SOL     OW26410   1.702   0.977   1.906
41468SOL    HW126411   1.681   0.994   1.998
41468SOL    HW226412   1.774   1.036   1.886
41469SOL     OW26413  10.055   9.939   8.690
41469SOL    HW126414  10.060  10.021   8.641
41469SOL    HW226415  10.146   9.914   8.704
41470SOL     OW26416   9.416   9.152   9.314
41470SOL    HW126417   9.502   9.121   9.285
41470SOL    HW226418   9.356   9.126   9.244
41471SOL     OW26419   1.058   3.113   6.413
41471SOL    HW126420   1.117   3.161   6.471
41471SOL    HW226421   1.005   3.180   6.371
41472SOL     OW26422   4.604   6.782  10.060
41472SOL    HW126423   4.597   6.877  10.056
41472SOL    HW226424   4.692   6.765  10.095
41473SOL     OW26425  10.231   5.834   1.324
41473SOL    HW126426  10.154   5.820   1.378
41473SOL    HW226427  10.257   5.924   1.340
41474SOL     OW26428   1.653   4.855   4.795
41474SOL    HW126429   1.721   4.922   4.792
41474SOL    HW226430   1.606   4.865   4.712
41475SOL     OW26431  11.091   3.383   0.818
41475SOL    HW126432  11.035   3.384   0.895
41475SOL    HW226433  11.031   3.394   0.744
41476SOL     OW26434   2.670   3.224   8.850
41476SOL    HW126435   2.622   3.155   8.804
41476SOL    HW226436   2.628   3.305   8.822
41477SOL     OW26437   7.470   9.129   3.082
41477SOL    HW126438   7.447   9.039   3.058
41477SOL    HW226439   7.565   9.133   3.069
41478SOL     OW26440   8.969   0.338   4.934
41478SOL    HW126441   8.953   0.274   4.865
41478SOL    HW226442   8.884   0.380   4.948
41479SOL     OW26443  10.150   6.920   5.932
41479SOL    HW126444  10.203   6.999   5.927
41479SOL    HW226445  10.138   6.893   5.841
41480SOL     OW26446   6.509   7.056   3.580
41480SOL    HW126447   6.508   7.025   3.489
41480SOL    HW226448   6.421   7.037   3.613
41481SOL     OW26449   8.848  10.821  10.484
41481SOL    HW126450   8.826  10.914  10.488
41481SOL    HW226451   8.840  10.790  10.574
41482SOL     OW26452   5.149   7.580   2.003
41482SOL    HW126453   5.158   7.571   2.097
41482SOL    HW226454   5.229   7.541   1.967
41483SOL     OW26455  10.770   8.964  10.101
41483SOL    HW126456  10.683   8.942  10.067
41483SOL    HW226457  10.796   9.042  10.052
41484SOL     OW26458  10.816   1.005   8.177
41484SOL    HW126459  10.877   0.969   8.242
41484SOL    HW226460  10.865   1.001   8.094
41485SOL     OW26461   6.421   4.126   0.114
41485SOL    HW126462   6.474   4.144   0.037
41485SOL    HW226463   6.345   4.078   0.081
41486SOL     OW26464   4.172   7.948  10.137
41486SOL    HW126465   4.261   7.920  10.114
41486SOL    HW226466   4.174   8.043  10.130
41487SOL     OW26467   4.602   0.344   2.806
41487SOL    HW126468   4.619   0.305   2.720
41487SOL    HW226469   4.680   0.322   2.857
41488SOL     OW26470   3.530   7.712   3.309
41488SOL    HW126471   3.531   7.642   3.375
41488SOL    HW226472   3.615   7.756   3.319
41489SOL     OW26473   6.271   8.491   0.180
41489SOL    HW126474   6.284   8.569   0.127
41489SOL    HW226475   6.353   8.443   0.172
41490SOL     OW26476   8.070   7.621   5.654
41490SOL    HW126477   8.079   7.678   5.578
41490SOL    HW226478   8.152   7.572   5.657
41491SOL     OW26479   1.695   7.523   4.604
41491SOL    HW126480   1.601   7.518   4.589
41491SOL    HW226481   1.729   7.439   4.572
41492SOL     OW26482   2.505   7.462   7.286
41492SOL    HW126483   2.581   7.515   7.312
41492SOL    HW226484   2.542   7.393   7.229
41493SOL     OW26485  11.012   7.264   1.404
41493SOL    HW126486  10.925   7.302   1.393
41493SOL    HW226487  11.072   7.337   1.393
41494SOL     OW26488   6.177   9.193   4.421
41494SOL    HW126489   6.086   9.163   4.422
41494SOL    HW226490   6.219   9.145   4.493
41495SOL     OW26491   4.904   6.057   4.198
41495SOL    HW126492   4.986   6.013   4.222
41495SOL    HW226493   4.893   6.125   4.264
41496SOL     OW26494   6.283   1.347   5.545
41496SOL    HW126495   6.265   1.434   5.510
41496SOL    HW226496   6.364   1.320   5.502
41497SOL     OW26497   5.099   9.054   2.900
41497SOL    HW126498   5.072   9.039   2.809
41497SOL    HW226499   5.194   9.041   2.899
41498SOL     OW26500   5.694   6.363   9.837
41498SOL    HW126501   5.689   6.442   9.891
41498SOL    HW226502   5.630   6.378   9.767
41499SOL     OW26503   9.295   6.108   1.413
41499SOL    HW126504   9.385   6.076   1.425
41499SOL    HW226505   9.304   6.203   1.406
41500SOL     OW26506   8.145   6.105   3.794
41500SOL    HW126507   8.178   6.177   3.740
41500SOL    HW226508   8.136   6.142   3.881
41501SOL     OW26509   2.487   4.982   7.718
41501SOL    HW126510   2.548   5.052   7.694
41501SOL    HW226511   2.461   5.002   7.808
41502SOL     OW26512   7.286   7.479   8.329
41502SOL    HW126513   7.275   7.557   8.382
41502SOL    HW226514   7.241   7.499   8.247
41503SOL     OW26515   8.734   7.925   3.984
41503SOL    HW126516   8.748   7.962   4.071
41503SOL    HW226517   8.801   7.857   3.976
41504SOL     OW26518  10.798   5.659   4.422
41504SOL    HW126519  10.734   5.730   4.416
41504SOL    HW226520  10.818   5.637   4.331
41505SOL     OW26521   1.317   6.268   8.314
41505SOL    HW126522   1.339   6.351   8.354
41505SOL    HW226523   1.340   6.279   8.222
41506SOL     OW26524   6.464   5.343   7.795
41506SOL    HW126525   6.407   5.273   7.762
41506SOL    HW226526   6.416   5.424   7.777
41507SOL     OW26527  10.719  10.088   8.185
41507SOL    HW126528  10.687  10.030   8.254
41507SOL    HW226529  10.640  10.113   8.137
41508SOL     OW26530   1.588  10.246   6.600
41508SOL    HW126531   1.647  10.187   6.552
41508SOL    HW226532   1.587  10.326   6.548
41509SOL     OW26533   8.103   6.757   5.339
41509SOL    HW126534   8.057   6.820   5.394
41509SOL    HW226535   8.194   6.762   5.367
41510SOL     OW26536   0.573   7.487   5.627
41510SOL    HW126537   0.614   7.404   5.603
41510SOL    HW226538   0.483   7.478   5.597
41511SOL     OW26539  10.308  10.026   6.770
41511SOL    HW126540  10.352  10.074   6.700
41511SOL    HW226541  10.371  10.024   6.841
41512SOL     OW26542   8.059   5.702   0.801
41512SOL    HW126543   8.038   5.778   0.854
41512SOL    HW226544   8.136   5.664   0.843
41513SOL     OW26545   6.587   8.196   1.961
41513SOL    HW126546   6.596   8.271   1.903
41513SOL    HW226547   6.661   8.140   1.939
41514SOL     OW26548   6.653   4.517   8.197
41514SOL    HW126549   6.727   4.524   8.136
41514SOL    HW226550   6.577   4.544   8.145
41515SOL     OW26551   6.265   4.141   6.153
41515SOL    HW126552   6.171   4.129   6.138
41515SOL    HW226553   6.281   4.100   6.238
41516SOL     OW26554   0.738  10.690   4.727
41516SOL    HW126555   0.705  10.636   4.655
41516SOL    HW226556   0.767  10.771   4.684
41517SOL     OW26557   9.060   2.048   0.610
41517SOL    HW126558   9.046   1.954   0.623
41517SOL    HW226559   9.081   2.056   0.517
41518SOL     OW26560   2.695   4.495   4.385
41518SOL    HW126561   2.643   4.571   4.360
41518SOL    HW226562   2.781   4.531   4.407
41519SOL     OW26563  10.495   9.107   3.817
41519SOL    HW126564  10.556   9.180   3.824
41519SOL    HW226565  10.416   9.138   3.860
41520SOL     OW26566   6.378   5.248   9.854
41520SOL    HW126567   6.472   5.263   9.850
41520SOL    HW226568   6.340   5.318   9.801
41521SOL     OW26569   8.873   9.312   5.192
41521SOL    HW126570   8.912   9.229   5.162
41521SOL    HW226571   8.948   9.371   5.201
41522SOL     OW26572   8.568   8.116   3.086
41522SOL    HW126573   8.630   8.095   3.156
41522SOL    HW226574   8.498   8.052   3.096
41523SOL     OW26575   8.621   5.186   3.568
41523SOL    HW126576   8.538   5.218   3.602
41523SOL    HW226577   8.602   5.097   3.538
41524SOL     OW26578   1.915   3.914   8.725
41524SOL    HW126579   2.007   3.929   8.702
41524SOL    HW226580   1.918   3.878   8.813
41525SOL     OW26581   9.725   6.882   3.088
41525SOL    HW126582   9.661   6.875   3.017
41525SOL    HW226583   9.673   6.897   3.167
41526SOL     OW26584   7.519   4.378   6.318
41526SOL    HW126585   7.529   4.284   6.301
41526SOL    HW226586   7.495   4.383   6.410
41527SOL     OW26587   1.875   1.407   2.882
41527SOL    HW126588   1.789   1.404   2.840
41527SOL    HW226589   1.937   1.383   2.812
41528SOL     OW26590  11.058   0.241   1.390
41528SOL    HW126591  11.039   0.274   1.302
41528SOL    HW226592  11.154   0.234   1.392
41529SOL     OW26593   9.947  10.578   6.816
41529SOL    HW126594   9.993  10.628   6.883
41529SOL    HW226595   9.919  10.498   6.860
41530SOL     OW26596   8.857   5.846   9.022
41530SOL    HW126597   8.920   5.914   9.046
41530SOL    HW226598   8.844   5.795   9.102
41531SOL     OW26599   1.378   5.462   3.172
41531SOL    HW126600   1.434   5.404   3.119
41531SOL    HW226601   1.335   5.518   3.107
41532SOL     OW26602  10.606   4.365  10.523
41532SOL    HW126603  10.526   4.401  10.484
41532SOL    HW226604  10.610   4.275  10.489
41533SOL     OW26605   1.164   0.194   7.399
41533SOL    HW126606   1.177   0.271   7.454
41533SOL    HW226607   1.110   0.225   7.326
41534SOL     OW26608   0.543   6.287   2.786
41534SOL    HW126609   0.567   6.318   2.698
41534SOL    HW226610   0.614   6.228   2.811
41535SOL     OW26611   7.903   6.208   6.438
41535SOL    HW126612   7.916   6.207   6.343
41535SOL    HW226613   7.815   6.244   6.450
41536SOL     OW26614   1.856   6.187   5.778
41536SOL    HW126615   1.790   6.167   5.712
41536SOL    HW226616   1.868   6.281   5.772
41537SOL     OW26617   7.696   1.241   2.683
41537SOL    HW126618   7.759   1.302   2.645
41537SOL    HW226619   7.703   1.162   2.629
41538SOL     OW26620   9.082   3.914   9.920
41538SOL    HW126621   9.102   3.957   9.837
41538SOL    HW226622   9.123   3.969   9.986
41539SOL     OW26623   1.863   2.534   9.541
41539SOL    HW126624   1.836   2.556   9.630
41539SOL    HW226625   1.918   2.607   9.514
41540SOL     OW26626   9.472   3.037   6.843
41540SOL    HW126627   9.426   3.019   6.761
41540SOL    HW226628   9.408   3.016   6.911
41541SOL     OW26629   4.691   5.264   1.984
41541SOL    HW126630   4.644   5.347   1.976
41541SOL    HW226631   4.633   5.199   1.944
41542SOL     OW26632   2.662   8.447   1.170
41542SOL    HW126633   2.575   8.481   1.150
41542SOL    HW226634   2.665   8.442   1.265
41543SOL     OW26635   7.355   8.181  10.084
41543SOL    HW126636   7.338   8.091  10.112
41543SOL    HW226637   7.446   8.180  10.055
41544SOL     OW26638   9.338   0.470   1.915
41544SOL    HW126639   9.302   0.515   1.838
41544SOL    HW226640   9.262   0.452   1.970
41545SOL     OW26641   7.544   3.969   8.228
41545SOL    HW126642   7.581   3.881   8.239
41545SOL    HW226643   7.454   3.961   8.260
41546SOL     OW26644   0.995   0.091   9.217
41546SOL    HW126645   1.031   0.027   9.278
41546SOL    HW226646   1.066   0.154   9.204
41547SOL     OW26647   9.877   6.640   6.386
41547SOL    HW126648   9.873   6.723   6.432
41547SOL    HW226649   9.900   6.664   6.296
41548SOL     OW26650   9.562   5.902   9.449
41548SOL    HW126651   9.575   5.947   9.532
41548SOL    HW226652   9.561   5.972   9.383
41549SOL     OW26653   9.080   7.127   1.553
41549SOL    HW126654   9.111   7.131   1.643
41549SOL    HW226655   8.988   7.103   1.559
41550SOL     OW26656   6.506   4.179   8.193
41550SOL    HW126657   6.508   4.265   8.152
41550SOL    HW226658   6.598   4.159   8.212
41551SOL     OW26659   4.901   0.470   4.356
41551SOL    HW126660   4.867   0.433   4.274
41551SOL    HW226661   4.969   0.408   4.384
41552SOL     OW26662  10.844   9.576   6.428
41552SOL    HW126663  10.766   9.592   6.375
41552SOL    HW226664  10.829   9.490   6.467
41553SOL     OW26665   9.759  10.013   0.089
41553SOL    HW126666   9.725  10.041   0.004
41553SOL    HW226667   9.834   9.957   0.068
41554SOL     OW26668   6.081   5.247   9.148
41554SOL    HW126669   6.177   5.245   9.151
41554SOL    HW226670   6.053   5.185   9.215
41555SOL     OW26671   9.133   9.668   3.858
41555SOL    HW126672   9.042   9.666   3.887
41555SOL    HW226673   9.140   9.595   3.796
41556SOL     OW26674  10.778   0.766  10.330
41556SOL    HW126675  10.703   0.825  10.332
41556SOL    HW226676  10.854   0.823  10.322
41557SOL     OW26677   8.504   9.219   5.612
41557SOL    HW126678   8.487   9.248   5.701
41557SOL    HW226679   8.583   9.266   5.586
41558SOL     OW26680   3.722   1.773  10.217
41558SOL    HW126681   3.805   1.812  10.189
41558SOL    HW226682   3.683   1.740  10.136
41559SOL     OW26683   5.893   4.881   8.294
41559SOL    HW126684   5.813   4.906   8.248
41559SOL    HW226685   5.939   4.823   8.232
41560SOL     OW26686   7.567   5.741   8.238
41560SOL    HW126687   7.537   5.735   8.147
41560SOL    HW226688   7.650   5.693   8.239
41561SOL     OW26689   3.687   2.169   3.343
41561SOL    HW126690   3.697   2.112   3.419
41561SOL    HW226691   3.651   2.112   3.275
41562SOL     OW26692  10.261   9.009   4.484
41562SOL    HW126693  10.314   9.059   4.422
41562SOL    HW226694  10.199   9.072   4.520
41563SOL     OW26695   5.494   4.170   1.772
41563SOL    HW126696   5.484   4.075   1.779
41563SOL    HW226697   5.560   4.192   1.837
41564SOL     OW26698   7.220   1.332   2.705
41564SOL    HW126699   7.291   1.269   2.715
41564SOL    HW226700   7.152   1.301   2.765
41565SOL     OW26701   5.140   2.858   9.332
41565SOL    HW126702   5.109   2.946   9.350
41565SOL    HW226703   5.110   2.840   9.243
41566SOL     OW26704  10.240   6.937   6.491
41566SOL    HW126705  10.251   6.869   6.424
41566SOL    HW226706  10.197   7.009   6.445
41567SOL     OW26707   0.646   1.192   2.604
41567SOL    HW126708   0.567   1.204   2.552
41567SOL    HW226709   0.718   1.205   2.541
41568SOL     OW26710   7.661   5.721  10.894
41568SOL    HW126711   7.632   5.704  10.804
41568SOL    HW226712   7.601   5.787  10.927
41569SOL     OW26713   8.545  10.292   0.194
41569SOL    HW126714   8.463  10.243   0.189
41569SOL    HW226715   8.607  10.241   0.142
41570SOL     OW26716   0.498   3.556   6.671
41570SOL    HW126717   0.484   3.565   6.576
41570SOL    HW226718   0.539   3.638   6.697
41571SOL     OW26719   8.777   1.088  10.069
41571SOL    HW126720   8.732   1.053  10.146
41571SOL    HW226721   8.758   1.025   9.999
41572SOL     OW26722   4.272   0.303   6.529
41572SOL    HW126723   4.240   0.364   6.462
41572SOL    HW226724   4.367   0.309   6.523
41573SOL     OW26725   2.442  10.780   6.527
41573SOL    HW126726   2.419  10.858   6.477
41573SOL    HW226727   2.373  10.717   6.506
41574SOL     OW26728  10.387   8.315  10.508
41574SOL    HW126729  10.473   8.274  10.494
41574SOL    HW226730  10.334   8.282  10.435
41575SOL     OW26731   8.852   9.793   5.502
41575SOL    HW126732   8.875   9.853   5.572
41575SOL    HW226733   8.788   9.841   5.449
41576SOL     OW26734   4.944   6.155   6.550
41576SOL    HW126735   4.948   6.249   6.532
41576SOL    HW226736   4.858   6.128   6.517
41577SOL     OW26737   2.050   6.112   9.717
41577SOL    HW126738   1.982   6.159   9.764
41577SOL    HW226739   2.113   6.179   9.691
41578SOL     OW26740   6.266   4.142   4.883
41578SOL    HW126741   6.189   4.105   4.926
41578SOL    HW226742   6.338   4.082   4.906
41579SOL     OW26743   6.880   7.047   1.183
41579SOL    HW126744   6.875   7.097   1.101
41579SOL    HW226745   6.901   6.957   1.155
41580SOL     OW26746   7.424   1.067   8.006
41580SOL    HW126747   7.516   1.057   7.981
41580SOL    HW226748   7.383   1.107   7.929
41581SOL     OW26749   3.100   6.784   2.814
41581SOL    HW126750   3.087   6.751   2.903
41581SOL    HW226751   3.170   6.729   2.778
41582SOL     OW26752   8.676   6.963   5.124
41582SOL    HW126753   8.622   6.929   5.195
41582SOL    HW226754   8.757   6.911   5.128
41583SOL     OW26755   8.898   8.497   9.891
41583SOL    HW126756   8.893   8.512   9.796
41583SOL    HW226757   8.902   8.584   9.929
41584SOL     OW26758   6.572  10.927   2.768
41584SOL    HW126759   6.638  10.926   2.698
41584SOL    HW226760   6.567  11.019   2.794
41585SOL     OW26761   1.077   2.570   6.987
41585SOL    HW126762   1.007   2.627   6.956
41585SOL    HW226763   1.050   2.482   6.960
41586SOL     OW26764   0.273   3.599   7.524
41586SOL    HW126765   0.327   3.549   7.585
41586SOL    HW226766   0.187   3.555   7.526
41587SOL     OW26767   0.328   8.836   3.988
41587SOL    HW126768   0.338   8.823   3.893
41587SOL    HW226769   0.289   8.754   4.019
41588SOL     OW26770   8.334   8.172   0.468
41588SOL    HW126771   8.307   8.202   0.381
41588SOL    HW226772   8.361   8.081   0.454
41589SOL     OW26773   2.786   7.014   3.866
41589SOL    HW126774   2.768   7.054   3.950
41589SOL    HW226775   2.770   7.083   3.802
41590SOL     OW26776   2.061   4.399   3.218
41590SOL    HW126777   1.992   4.453   3.255
41590SOL    HW226778   2.105   4.456   3.155
41591SOL     OW26779   6.316   9.691   2.787
41591SOL    HW126780   6.347   9.655   2.870
41591SOL    HW226781   6.285   9.779   2.809
41592SOL     OW26782   6.457   4.260   0.548
41592SOL    HW126783   6.462   4.190   0.613
41592SOL    HW226784   6.422   4.335   0.595
41593SOL     OW26785   3.214   4.873   7.675
41593SOL    HW126786   3.194   4.868   7.768
41593SOL    HW226787   3.303   4.908   7.671
41594SOL     OW26788   0.222  10.769   3.328
41594SOL    HW126789   0.171  10.688   3.328
41594SOL    HW226790   0.220  10.798   3.237
41595SOL     OW26791   5.334   7.753   4.081
41595SOL    HW126792   5.332   7.742   4.176
41595SOL    HW226793   5.242   7.754   4.054
41596SOL     OW26794   4.241   8.978   5.487
41596SOL    HW126795   4.193   9.055   5.514
41596SOL    HW226796   4.190   8.904   5.521
41597SOL     OW26797   3.312   4.088   6.507
41597SOL    HW126798   3.312   3.993   6.493
41597SOL    HW226799   3.315   4.125   6.418
41598SOL     OW26800   7.326   1.822   6.255
41598SOL    HW126801   7.254   1.785   6.305
41598SOL    HW226802   7.291   1.830   6.166
41599SOL     OW26803   1.985   4.172   8.965
41599SOL    HW126804   2.071   4.164   8.924
41599SOL    HW226805   1.924   4.173   8.891
41600SOL     OW26806  10.421   2.142   1.340
41600SOL    HW126807  10.328   2.131   1.359
41600SOL    HW226808  10.465   2.089   1.406
41601SOL     OW26809   1.966   6.259   7.688
41601SOL    HW126810   2.003   6.341   7.656
41601SOL    HW226811   1.876   6.257   7.654
41602SOL     OW26812   3.441  10.309   8.206
41602SOL    HW126813   3.487  10.250   8.145
41602SOL    HW226814   3.476  10.396   8.185
41603SOL     OW26815   2.615   6.500   9.145
41603SOL    HW126816   2.576   6.471   9.227
41603SOL    HW226817   2.646   6.588   9.163
41604SOL     OW26818   3.235   1.112   4.050
41604SOL    HW126819   3.266   1.023   4.033
41604SOL    HW226820   3.146   1.100   4.083
41605SOL     OW26821   3.736   2.642   6.459
41605SOL    HW126822   3.671   2.579   6.428
41605SOL    HW226823   3.765   2.607   6.543
41606SOL     OW26824   8.554   1.537   1.947
41606SOL    HW126825   8.516   1.570   2.028
41606SOL    HW226826   8.649   1.541   1.961
41607SOL     OW26827   8.199   9.225   0.729
41607SOL    HW126828   8.118   9.182   0.756
41607SOL    HW226829   8.260   9.153   0.712
41608SOL     OW26830  10.741   3.670   8.022
41608SOL    HW126831  10.783   3.624   8.095
41608SOL    HW226832  10.656   3.628   8.013
41609SOL     OW26833   1.184   6.268   1.405
41609SOL    HW126834   1.127   6.243   1.478
41609SOL    HW226835   1.189   6.189   1.351
41610SOL     OW26836   7.901   9.404   2.935
41610SOL    HW126837   7.893   9.482   2.880
41610SOL    HW226838   7.935   9.437   3.018
41611SOL     OW26839   4.441   5.192   3.728
41611SOL    HW126840   4.356   5.150   3.715
41611SOL    HW226841   4.458   5.185   3.822
41612SOL     OW26842  10.443   3.025   7.157
41612SOL    HW126843  10.476   3.001   7.243
41612SOL    HW226844  10.491   3.104   7.134
41613SOL     OW26845   4.505   8.040   7.444
41613SOL    HW126846   4.411   8.030   7.460
41613SOL    HW226847   4.536   7.950   7.429
41614SOL     OW26848   5.516   2.145   9.977
41614SOL    HW126849   5.535   2.051   9.977
41614SOL    HW226850   5.489   2.163   9.887
41615SOL     OW26851   2.773   7.726   5.117
41615SOL    HW126852   2.738   7.758   5.034
41615SOL    HW226853   2.847   7.670   5.092
41616SOL     OW26854  11.066   0.620   5.828
41616SOL    HW126855  11.082   0.713   5.817
41616SOL    HW226856  11.153   0.581   5.837
41617SOL     OW26857   1.077   7.015   5.980
41617SOL    HW126858   1.080   7.065   6.061
41617SOL    HW226859   0.984   7.008   5.958
41618SOL     OW26860   6.520   0.019   4.534
41618SOL    HW126861   6.590   0.041   4.595
41618SOL    HW226862   6.525  -0.077   4.525
41619SOL     OW26863   2.620   0.570   5.758
41619SOL    HW126864   2.712   0.549   5.775
41619SOL    HW226865   2.583   0.589   5.844
41620SOL     OW26866   9.133   6.231   8.644
41620SOL    HW126867   9.113   6.221   8.737
41620SOL    HW226868   9.102   6.319   8.621
41621SOL     OW26869   1.287   0.247   5.458
41621SOL    HW126870   1.289   0.171   5.399
41621SOL    HW226871   1.226   0.221   5.527
41622SOL     OW26872   9.587   1.598   7.006
41622SOL    HW126873   9.544   1.675   7.042
41622SOL    HW226874   9.588   1.613   6.911
41623SOL     OW26875   3.338   9.743  10.814
41623SOL    HW126876   3.356   9.808  10.746
41623SOL    HW226877   3.405   9.758  10.881
41624SOL     OW26878   0.910   3.909  10.176
41624SOL    HW126879   0.833   3.877  10.129
41624SOL    HW226880   0.896   4.003  10.184
41625SOL     OW26881   9.234   0.997   8.784
41625SOL    HW126882   9.241   0.912   8.740
41625SOL    HW226883   9.298   0.992   8.855
41626SOL     OW26884   8.961   5.631   6.572
41626SOL    HW126885   9.044   5.585   6.557
41626SOL    HW226886   8.974   5.717   6.533
41627SOL     OW26887   7.505  10.976   9.764
41627SOL    HW126888   7.453  11.015   9.834
41627SOL    HW226889   7.516  10.885   9.790
41628SOL     OW26890   6.225   0.887   4.866
41628SOL    HW126891   6.242   0.943   4.941
41628SOL    HW226892   6.271   0.805   4.886
41629SOL     OW26893   7.061   3.374   0.724
41629SOL    HW126894   7.039   3.330   0.641
41629SOL    HW226895   7.093   3.303   0.780
41630SOL     OW26896   2.226   4.310   3.632
41630SOL    HW126897   2.256   4.343   3.547
41630SOL    HW226898   2.147   4.260   3.612
41631SOL     OW26899   9.837   1.839   5.823
41631SOL    HW126900   9.863   1.798   5.905
41631SOL    HW226901   9.873   1.781   5.755
41632SOL     OW26902   0.694   3.019  11.097
41632SOL    HW126903   0.708   3.090  11.034
41632SOL    HW226904   0.603   2.992  11.082
41633SOL     OW26905   7.734   2.963   6.113
41633SOL    HW126906   7.702   3.053   6.114
41633SOL    HW226907   7.706   2.928   6.028
41634SOL     OW26908   7.278   2.858   2.854
41634SOL    HW126909   7.295   2.951   2.866
41634SOL    HW226910   7.272   2.823   2.943
41635SOL     OW26911  10.022   6.187   6.651
41635SOL    HW126912   9.985   6.274   6.641
41635SOL    HW226913   9.968   6.145   6.718
41636SOL     OW26914   6.386   7.734   5.960
41636SOL    HW126915   6.363   7.751   5.868
41636SOL    HW226916   6.476   7.764   5.968
41637SOL     OW26917  10.868   5.958   6.348
41637SOL    HW126918  10.930   6.022   6.313
41637SOL    HW226919  10.869   5.886   6.284
41638SOL     OW26920   4.178   3.265   6.530
41638SOL    HW126921   4.138   3.274   6.616
41638SOL    HW226922   4.121   3.315   6.472
41639SOL     OW26923   6.763   9.898   4.397
41639SOL    HW126924   6.782   9.956   4.470
41639SOL    HW226925   6.808   9.937   4.322
41640SOL     OW26926   9.712   7.598   5.784
41640SOL    HW126927   9.697   7.548   5.864
41640SOL    HW226928   9.685   7.538   5.714
41641SOL     OW26929   8.326  10.601   0.912
41641SOL    HW126930   8.276  10.666   0.863
41641SOL    HW226931   8.325  10.633   1.002
41642SOL     OW26932  10.733   9.555  10.956
41642SOL    HW126933  10.716   9.649  10.950
41642SOL    HW226934  10.647   9.514  10.945
41643SOL     OW26935   3.255   9.897   7.219
41643SOL    HW126936   3.305   9.907   7.300
41643SOL    HW226937   3.191   9.829   7.239
41644SOL     OW26938   1.061   9.387  10.887
41644SOL    HW126939   0.992   9.443  10.922
41644SOL    HW226940   1.017   9.333  10.821
41645SOL     OW26941   9.991   6.516   9.877
41645SOL    HW126942   9.897   6.500   9.886
41645SOL    HW226943  10.031   6.429   9.889
41646SOL     OW26944   9.979   6.830   1.345
41646SOL    HW126945   9.980   6.917   1.384
41646SOL    HW226946  10.054   6.829   1.285
41647SOL     OW26947   9.282  10.102   5.387
41647SOL    HW126948   9.312  10.056   5.465
41647SOL    HW226949   9.187  10.107   5.396
41648SOL     OW26950   5.666   5.483   4.011
41648SOL    HW126951   5.691   5.432   4.088
41648SOL    HW226952   5.584   5.444   3.982
41649SOL     OW26953   2.725   6.546  10.502
41649SOL    HW126954   2.714   6.463  10.549
41649SOL    HW226955   2.806   6.583  10.536
41650SOL     OW26956   4.803   7.085   4.793
41650SOL    HW126957   4.864   7.018   4.824
41650SOL    HW226958   4.784   7.060   4.702
41651SOL     OW26959   8.388   8.241   9.094
41651SOL    HW126960   8.451   8.196   9.150
41651SOL    HW226961   8.305   8.196   9.110
41652SOL     OW26962   9.359  10.174   6.096
41652SOL    HW126963   9.351  10.233   6.021
41652SOL    HW226964   9.303  10.213   6.163
41653SOL     OW26965   4.260   8.257   0.857
41653SOL    HW126966   4.190   8.313   0.825
41653SOL    HW226967   4.220   8.170   0.862
41654SOL     OW26968   7.262   6.880   0.664
41654SOL    HW126969   7.299   6.968   0.673
41654SOL    HW226970   7.263   6.863   0.570
41655SOL     OW26971   5.613   3.344   0.390
41655SOL    HW126972   5.635   3.324   0.481
41655SOL    HW226973   5.559   3.422   0.395
41656SOL     OW26974   0.703   4.414   3.491
41656SOL    HW126975   0.726   4.322   3.503
41656SOL    HW226976   0.773   4.449   3.435
41657SOL     OW26977  11.059   8.349  10.773
41657SOL    HW126978  11.039   8.398  10.693
41657SOL    HW226979  11.140   8.302  10.752
41658SOL     OW26980   1.562   5.606   9.580
41658SOL    HW126981   1.491   5.565   9.530
41658SOL    HW226982   1.529   5.612   9.669
41659SOL     OW26983   3.557   2.463   6.610
41659SOL    HW126984   3.620   2.497   6.673
41659SOL    HW226985   3.492   2.417   6.663
41660SOL     OW26986   9.464   5.870   7.426
41660SOL    HW126987   9.449   5.952   7.471
41660SOL    HW226988   9.428   5.803   7.484
41661SOL     OW26989   8.391  10.527  10.884
41661SOL    HW126990   8.316  10.509  10.827
41661SOL    HW226991   8.361  10.596  10.943
41662SOL     OW26992   7.252   0.806   9.340
41662SOL    HW126993   7.286   0.824   9.427
41662SOL    HW226994   7.209   0.887   9.313
41663SOL     OW26995   6.371   6.645   7.287
41663SOL    HW126996   6.361   6.698   7.208
41663SOL    HW226997   6.308   6.681   7.349
41664SOL     OW26998   8.746   3.415   7.729
41664SOL    HW126999   8.781   3.475   7.794
41664SOL    HW227000   8.752   3.329   7.770
41665SOL     OW27001   9.780   9.722   3.813
41665SOL    HW127002   9.783   9.777   3.890
41665SOL    HW227003   9.872   9.713   3.787
41666SOL     OW27004   0.765   3.380   7.172
41666SOL    HW127005   0.692   3.330   7.135
41666SOL    HW227006   0.725   3.443   7.231
41667SOL     OW27007   1.807   5.518   9.349
41667SOL    HW127008   1.845   5.479   9.427
41667SOL    HW227009   1.831   5.610   9.354
41668SOL     OW27010   6.758   5.713   3.467
41668SOL    HW127011   6.727   5.793   3.508
41668SOL    HW227012   6.797   5.741   3.384
41669SOL     OW27013   0.117   7.236   5.357
41669SOL    HW127014   0.053   7.219   5.426
41669SOL    HW227015   0.099   7.168   5.292
41670SOL     OW27016   8.332   6.812   5.470
41670SOL    HW127017   8.369   6.813   5.558
41670SOL    HW227018   8.403   6.842   5.413
41671SOL     OW27019   3.159   8.226   7.699
41671SOL    HW127020   3.185   8.293   7.636
41671SOL    HW227021   3.180   8.143   7.655
41672SOL     OW27022   7.257   5.888   4.566
41672SOL    HW127023   7.246   5.835   4.645
41672SOL    HW227024   7.341   5.860   4.530
41673SOL     OW27025   2.215   6.448   3.169
41673SOL    HW127026   2.177   6.510   3.231
41673SOL    HW227027   2.161   6.457   3.090
41674SOL     OW27028   2.602   2.841   7.294
41674SOL    HW127029   2.516   2.803   7.314
41674SOL    HW227030   2.583   2.931   7.268
41675SOL     OW27031   1.022   5.414   6.797
41675SOL    HW127032   0.979   5.483   6.847
41675SOL    HW227033   0.980   5.416   6.711
41676SOL     OW27034   9.754   1.835   2.722
41676SOL    HW127035   9.809   1.805   2.649
41676SOL    HW227036   9.816   1.854   2.792
41677SOL     OW27037   3.520   7.279  10.769
41677SOL    HW127038   3.479   7.221  10.833
41677SOL    HW227039   3.581   7.332  10.820
41678SOL     OW27040  10.546   6.745  10.832
41678SOL    HW127041  10.582   6.680  10.893
41678SOL    HW227042  10.623   6.789  10.796
41679SOL     OW27043   7.053   8.198   9.153
41679SOL    HW127044   7.099   8.211   9.236
41679SOL    HW227045   7.073   8.107   9.128
41680SOL     OW27046   9.143   4.071   7.621
41680SOL    HW127047   9.229   4.067   7.579
41680SOL    HW227048   9.097   3.994   7.588
41681SOL     OW27049   3.169   0.032  10.694
41681SOL    HW127050   3.164  -0.045  10.750
41681SOL    HW227051   3.230   0.091  10.738
41682SOL     OW27052   9.189   7.851  10.946
41682SOL    HW127053   9.141   7.932  10.964
41682SOL    HW227054   9.142   7.810  10.873
41683SOL     OW27055   5.566   6.093   0.455
41683SOL    HW127056   5.622   6.079   0.531
41683SOL    HW227057   5.590   6.180   0.423
41684SOL     OW27058   0.237   0.531   6.485
41684SOL    HW127059   0.155   0.580   6.480
41684SOL    HW227060   0.274   0.538   6.397
41685SOL     OW27061   8.378   9.514   7.343
41685SOL    HW127062   8.310   9.568   7.304
41685SOL    HW227063   8.455   9.528   7.287
41686SOL     OW27064   3.422   0.710   0.685
41686SOL    HW127065   3.339   0.727   0.729
41686SOL    HW227066   3.477   0.670   0.752
41687SOL     OW27067   5.485   9.351   2.458
41687SOL    HW127068   5.423   9.278   2.464
41687SOL    HW227069   5.467   9.390   2.373
41688SOL     OW27070   8.018   8.488   3.036
41688SOL    HW127071   8.093   8.485   2.976
41688SOL    HW227072   7.982   8.576   3.025
41689SOL     OW27073   1.006   8.951   1.733
41689SOL    HW127074   1.044   8.910   1.655
41689SOL    HW227075   1.040   9.040   1.732
41690SOL     OW27076   0.410   6.871   3.341
41690SOL    HW127077   0.320   6.901   3.354
41690SOL    HW227078   0.422   6.873   3.246
41691SOL     OW27079   5.203   2.731   7.218
41691SOL    HW127080   5.147   2.690   7.152
41691SOL    HW227081   5.149   2.800   7.256
41692SOL     OW27082   9.545   3.193   1.951
41692SOL    HW127083   9.637   3.196   1.979
41692SOL    HW227084   9.544   3.241   1.868
41693SOL     OW27085   8.479   5.665   4.749
41693SOL    HW127086   8.547   5.684   4.684
41693SOL    HW227087   8.465   5.570   4.742
41694SOL     OW27088   4.336   4.296   8.352
41694SOL    HW127089   4.261   4.242   8.378
41694SOL    HW227090   4.308   4.385   8.370
41695SOL     OW27091   7.185   8.280   2.514
41695SOL    HW127092   7.235   8.200   2.533
41695SOL    HW227093   7.226   8.315   2.434
41696SOL     OW27094   9.586   7.529   7.552
41696SOL    HW127095   9.596   7.591   7.624
41696SOL    HW227096   9.670   7.532   7.505
41697SOL     OW27097   5.914   0.919   0.586
41697SOL    HW127098   5.877   0.995   0.542
41697SOL    HW227099   6.005   0.943   0.604
41698SOL     OW27100  10.731  10.439   8.079
41698SOL    HW127101  10.733  10.378   8.005
41698SOL    HW227102  10.642  10.474   8.079
41699SOL     OW27103   6.141   3.139   8.904
41699SOL    HW127104   6.225   3.173   8.934
41699SOL    HW227105   6.111   3.082   8.975
41700SOL     OW27106   9.249   3.464   4.907
41700SOL    HW127107   9.220   3.372   4.909
41700SOL    HW227108   9.329   3.462   4.855
41701SOL     OW27109   6.020   8.234   8.508
41701SOL    HW127110   6.057   8.146   8.509
41701SOL    HW227111   6.096   8.292   8.500
41702SOL     OW27112   0.774   8.439   7.349
41702SOL    HW127113   0.860   8.455   7.310
41702SOL    HW227114   0.712   8.468   7.282
41703SOL     OW27115   3.639   6.495   1.854
41703SOL    HW127116   3.723   6.452   1.870
41703SOL    HW227117   3.584   6.469   1.928
41704SOL     OW27118   1.483   3.947   6.864
41704SOL    HW127119   1.494   4.041   6.849
41704SOL    HW227120   1.567   3.918   6.899
41705SOL     OW27121   1.007   7.866   5.781
41705SOL    HW127122   1.005   7.838   5.689
41705SOL    HW227123   1.046   7.953   5.778
41706SOL     OW27124   1.908   8.196   7.424
41706SOL    HW127125   1.813   8.200   7.415
41706SOL    HW227126   1.940   8.276   7.382
41707SOL     OW27127   0.791   1.623   9.407
41707SOL    HW127128   0.869   1.568   9.395
41707SOL    HW227129   0.812   1.704   9.360
41708SOL     OW27130   9.747   7.532   9.163
41708SOL    HW127131   9.660   7.561   9.190
41708SOL    HW227132   9.808   7.591   9.207
41709SOL     OW27133  10.017   3.958   9.301
41709SOL    HW127134  10.001   3.903   9.223
41709SOL    HW227135  10.074   4.028   9.269
41710SOL     OW27136   3.227   1.542   0.817
41710SOL    HW127137   3.167   1.556   0.744
41710SOL    HW227138   3.222   1.448   0.835
41711SOL     OW27139   9.881   1.548   6.423
41711SOL    HW127140   9.813   1.615   6.422
41711SOL    HW227141   9.963   1.597   6.414
41712SOL     OW27142   9.311   1.403   3.307
41712SOL    HW127143   9.356   1.486   3.323
41712SOL    HW227144   9.334   1.381   3.216
41713SOL     OW27145   0.164   8.339  11.096
41713SOL    HW127146   0.125   8.269  11.042
41713SOL    HW227147   0.240   8.298  11.136
41714SOL     OW27148  10.117   1.269  10.993
41714SOL    HW127149  10.044   1.268  10.931
41714SOL    HW227150  10.149   1.359  10.992
41715SOL     OW27151   1.931   6.038   6.725
41715SOL    HW127152   1.939   5.944   6.704
41715SOL    HW227153   2.016   6.061   6.762
41716SOL     OW27154   7.354   3.874  10.064
41716SOL    HW127155   7.421   3.928  10.105
41716SOL    HW227156   7.277   3.930  10.059
41717SOL     OW27157   3.759   3.076   7.457
41717SOL    HW127158   3.713   3.017   7.517
41717SOL    HW227159   3.769   3.024   7.377
41718SOL     OW27160   3.613   8.488   3.464
41718SOL    HW127161   3.604   8.563   3.523
41718SOL    HW227162   3.708   8.472   3.458
41719SOL     OW27163   7.941   3.576  10.229
41719SOL    HW127164   7.997   3.505  10.261
41719SOL    HW227165   7.852   3.547  10.250
41720SOL     OW27166   3.595   1.409   1.157
41720SOL    HW127167   3.530   1.443   1.095
41720SOL    HW227168   3.659   1.364   1.101
41721SOL     OW27169  10.802   4.853   1.365
41721SOL    HW127170  10.849   4.923   1.409
41721SOL    HW227171  10.736   4.897   1.312
41722SOL     OW27172   2.903   8.944   4.693
41722SOL    HW127173   2.864   8.869   4.738
41722SOL    HW227174   2.830   9.004   4.679
41723SOL     OW27175   6.826   5.184   8.845
41723SOL    HW127176   6.796   5.125   8.775
41723SOL    HW227177   6.770   5.261   8.837
41724SOL     OW27178   9.148   7.197   9.888
41724SOL    HW127179   9.179   7.227   9.973
41724SOL    HW227180   9.144   7.101   9.896
41725SOL     OW27181   7.122   1.503   0.061
41725SOL    HW127182   7.190   1.455   0.013
41725SOL    HW227183   7.161   1.519   0.147
41726SOL     OW27184   6.871   4.322   3.853
41726SOL    HW127185   6.832   4.409   3.857
41726SOL    HW227186   6.931   4.319   3.927
41727SOL     OW27187   8.550   7.382   7.673
41727SOL    HW127188   8.582   7.466   7.706
41727SOL    HW227189   8.628   7.325   7.673
41728SOL     OW27190   2.298   6.396   5.825
41728SOL    HW127191   2.271   6.307   5.802
41728SOL    HW227192   2.220   6.436   5.863
41729SOL     OW27193   0.405   5.007   8.347
41729SOL    HW127194   0.334   4.962   8.392
41729SOL    HW227195   0.361   5.068   8.287
41730SOL     OW27196   2.537   4.255   5.455
41730SOL    HW127197   2.482   4.289   5.526
41730SOL    HW227198   2.475   4.217   5.393
41731SOL     OW27199   7.509   6.451   7.871
41731SOL    HW127200   7.421   6.453   7.834
41731SOL    HW227201   7.567   6.454   7.794
41732SOL     OW27202   2.986   9.667   7.585
41732SOL    HW127203   3.025   9.581   7.601
41732SOL    HW227204   2.922   9.652   7.515
41733SOL     OW27205   2.928  10.750   1.628
41733SOL    HW127206   2.897  10.710   1.546
41733SOL    HW227207   2.925  10.844   1.611
41734SOL     OW27208   0.862   3.850   5.491
41734SOL    HW127209   0.943   3.833   5.442
41734SOL    HW227210   0.807   3.900   5.430
41735SOL     OW27211  10.202   4.227   7.617
41735SOL    HW127212  10.262   4.299   7.636
41735SOL    HW227213  10.179   4.238   7.524
41736SOL     OW27214   8.463   7.741   1.721
41736SOL    HW127215   8.472   7.805   1.791
41736SOL    HW227216   8.369   7.733   1.708
41737SOL     OW27217   1.673   8.150   1.108
41737SOL    HW127218   1.717   8.151   1.193
41737SOL    HW227219   1.624   8.232   1.105
41738SOL     OW27220  10.565   2.421   3.599
41738SOL    HW127221  10.645   2.416   3.546
41738SOL    HW227222  10.573   2.347   3.660
41739SOL     OW27223  10.469  10.530   4.459
41739SOL    HW127224  10.390  10.550   4.509
41739SOL    HW227225  10.437  10.480   4.383
41740SOL     OW27226   8.686   4.920   6.463
41740SOL    HW127227   8.649   5.001   6.498
41740SOL    HW227228   8.614   4.857   6.467
41741SOL     OW27229   3.292   8.252   9.225
41741SOL    HW127230   3.342   8.333   9.217
41741SOL    HW227231   3.262   8.250   9.316
41742SOL     OW27232   9.894   8.847   8.689
41742SOL    HW127233   9.908   8.755   8.664
41742SOL    HW227234   9.813   8.846   8.740
41743SOL     OW27235   4.328  10.380   9.067
41743SOL    HW127236   4.330  10.471   9.039
41743SOL    HW227237   4.238  10.352   9.052
41744SOL     OW27238   3.885   7.873   7.028
41744SOL    HW127239   3.959   7.847   7.083
41744SOL    HW227240   3.915   7.855   6.939
41745SOL     OW27241   5.108   7.014   0.796
41745SOL    HW127242   5.131   7.036   0.706
41745SOL    HW227243   5.104   6.918   0.796
41746SOL     OW27244   6.135   7.082   9.207
41746SOL    HW127245   6.215   7.130   9.184
41746SOL    HW227246   6.114   7.111   9.295
41747SOL     OW27247  10.684  10.100   3.533
41747SOL    HW127248  10.619  10.115   3.464
41747SOL    HW227249  10.661  10.162   3.601
41748SOL     OW27250   6.727  10.255   0.681
41748SOL    HW127251   6.797  10.317   0.700
41748SOL    HW227252   6.733  10.189   0.750
41749SOL     OW27253  10.366   5.545   5.981
41749SOL    HW127254  10.423   5.555   6.057
41749SOL    HW227255  10.367   5.631   5.939
41750SOL     OW27256   9.553   2.477   4.630
41750SOL    HW127257   9.554   2.455   4.537
41750SOL    HW227258   9.480   2.427   4.666
41751SOL     OW27259   4.297   5.457   0.003
41751SOL    HW127260   4.282   5.542  -0.037
41751SOL    HW227261   4.225   5.446   0.065
41752SOL     OW27262   9.871   0.714   9.107
41752SOL    HW127263   9.950   0.667   9.133
41752SOL    HW227264   9.821   0.724   9.187
41753SOL     OW27265   7.617   1.596   6.779
41753SOL    HW127266   7.604   1.505   6.807
41753SOL    HW227267   7.684   1.591   6.711
41754SOL     OW27268   4.191   6.663  10.891
41754SOL    HW127269   4.252   6.601  10.931
41754SOL    HW227270   4.168   6.623  10.807
41755SOL     OW27271   3.193   8.630   8.472
41755SOL    HW127272   3.153   8.714   8.494
41755SOL    HW227273   3.154   8.568   8.533
41756SOL     OW27274   4.705   7.533   6.034
41756SOL    HW127275   4.658   7.563   6.112
41756SOL    HW227276   4.652   7.564   5.960
41757SOL     OW27277   8.144   4.394   6.825
41757SOL    HW127278   8.148   4.488   6.842
41757SOL    HW227279   8.080   4.385   6.754
41758SOL     OW27280   8.315   4.960   8.108
41758SOL    HW127281   8.349   4.955   8.018
41758SOL    HW227282   8.372   4.902   8.158
41759SOL     OW27283  10.351   0.506   0.731
41759SOL    HW127284  10.289   0.529   0.800
41759SOL    HW227285  10.431   0.482   0.778
41760SOL     OW27286   2.828   7.381   2.894
41760SOL    HW127287   2.881   7.343   2.823
41760SOL    HW227288   2.743   7.397   2.854
41761SOL     OW27289   9.672  10.176   2.713
41761SOL    HW127290   9.725  10.109   2.756
41761SOL    HW227291   9.726  10.255   2.717
41762SOL     OW27292   5.246   6.881   5.603
41762SOL    HW127293   5.337   6.853   5.587
41762SOL    HW227294   5.253   6.949   5.670
41763SOL     OW27295  10.994   9.680   9.113
41763SOL    HW127296  11.008   9.722   9.028
41763SOL    HW227297  11.059   9.720   9.171
41764SOL     OW27298   7.554   8.952   9.649
41764SOL    HW127299   7.496   9.027   9.662
41764SOL    HW227300   7.502   8.890   9.598
41765SOL     OW27301   9.531   6.714   5.475
41765SOL    HW127302   9.573   6.630   5.496
41765SOL    HW227303   9.438   6.699   5.491
41766SOL     OW27304   5.789   7.987   5.004
41766SOL    HW127305   5.827   7.911   4.959
41766SOL    HW227306   5.784   7.960   5.096
41767SOL     OW27307   0.340   6.662   2.160
41767SOL    HW127308   0.265   6.636   2.214
41767SOL    HW227309   0.381   6.579   2.136
41768SOL     OW27310   6.122   7.660   2.954
41768SOL    HW127311   6.088   7.596   2.890
41768SOL    HW227312   6.215   7.668   2.932
41769SOL     OW27313   0.507   2.310   4.025
41769SOL    HW127314   0.470   2.313   4.113
41769SOL    HW227315   0.577   2.375   4.025
41770SOL     OW27316  10.486   8.760   3.237
41770SOL    HW127317  10.441   8.838   3.269
41770SOL    HW227318  10.475   8.695   3.306
41771SOL     OW27319   3.472   8.852   7.122
41771SOL    HW127320   3.457   8.866   7.215
41771SOL    HW227321   3.386   8.830   7.086
41772SOL     OW27322  10.446   9.175   5.295
41772SOL    HW127323  10.378   9.222   5.248
41772SOL    HW227324  10.525   9.227   5.282
41773SOL     OW27325   4.125   4.835   5.414
41773SOL    HW127326   4.157   4.909   5.362
41773SOL    HW227327   4.201   4.806   5.465
41774SOL     OW27328   4.652   5.531   8.338
41774SOL    HW127329   4.729   5.474   8.334
41774SOL    HW227330   4.580   5.475   8.309
41775SOL     OW27331   6.832   6.705   7.497
41775SOL    HW127332   6.750   6.753   7.510
41775SOL    HW227333   6.852   6.717   7.404
41776SOL     OW27334   8.260   7.811   0.667
41776SOL    HW127335   8.255   7.832   0.573
41776SOL    HW227336   8.170   7.817   0.698
41777SOL     OW27337   8.171   5.721   3.869
41777SOL    HW127338   8.243   5.763   3.915
41777SOL    HW227339   8.094   5.774   3.889
41778SOL     OW27340  11.017   9.485  10.958
41778SOL    HW127341  10.924   9.504  10.969
41778SOL    HW227342  11.053   9.562  10.915
41779SOL     OW27343   2.876   3.146   6.303
41779SOL    HW127344   2.801   3.197   6.333
41779SOL    HW227345   2.937   3.147   6.376
41780SOL     OW27346   7.780   9.127   5.871
41780SOL    HW127347   7.762   9.191   5.940
41780SOL    HW227348   7.754   9.043   5.909
41781SOL     OW27349  10.886   7.432   5.167
41781SOL    HW127350  10.847   7.367   5.108
41781SOL    HW227351  10.850   7.515   5.137
41782SOL     OW27352   3.867   6.326   9.724
41782SOL    HW127353   3.781   6.368   9.727
41782SOL    HW227354   3.857   6.246   9.775
41783SOL     OW27355   3.654   7.921   9.998
41783SOL    HW127356   3.671   8.010   9.969
41783SOL    HW227357   3.739   7.889  10.029
41784SOL     OW27358   9.557   8.470   6.894
41784SOL    HW127359   9.544   8.488   6.987
41784SOL    HW227360   9.627   8.405   6.891
41785SOL     OW27361   1.345   2.996   7.137
41785SOL    HW127362   1.316   2.905   7.130
41785SOL    HW227363   1.287   3.035   7.202
41786SOL     OW27364   9.907   7.364   6.068
41786SOL    HW127365   9.950   7.286   6.033
41786SOL    HW227366   9.951   7.437   6.024
41787SOL     OW27367   1.757   4.004   2.779
41787SOL    HW127368   1.796   4.091   2.781
41787SOL    HW227369   1.826   3.946   2.813
41788SOL     OW27370   4.159   1.704   7.025
41788SOL    HW127371   4.088   1.699   7.089
41788SOL    HW227372   4.130   1.770   6.962
41789SOL     OW27373   8.596   9.604   8.442
41789SOL    HW127374   8.677   9.631   8.399
41789SOL    HW227375   8.536   9.677   8.429
41790SOL     OW27376  10.867  10.871  10.961
41790SOL    HW127377  10.873  10.965  10.979
41790SOL    HW227378  10.775  10.850  10.977
41791SOL     OW27379   0.007   2.278   8.097
41791SOL    HW127380  -0.055   2.336   8.053
41791SOL    HW227381   0.076   2.263   8.032
41792SOL     OW27382   0.934  10.107   7.735
41792SOL    HW127383   0.915  10.193   7.772
41792SOL    HW227384   1.024  10.113   7.703
41793SOL     OW27385   9.471   3.448  10.621
41793SOL    HW127386   9.530   3.406  10.683
41793SOL    HW227387   9.386   3.408  10.638
41794SOL     OW27388   4.448   1.124   7.740
41794SOL    HW127389   4.484   1.205   7.704
41794SOL    HW227390   4.471   1.057   7.676
41795SOL     OW27391   3.096   1.259  10.430
41795SOL    HW127392   3.137   1.343  10.449
41795SOL    HW227393   3.133   1.233  10.345
41796SOL     OW27394   2.543   1.786   6.400
41796SOL    HW127395   2.503   1.833   6.472
41796SOL    HW227396   2.553   1.696   6.432
41797SOL     OW27397   1.338   7.361   9.306
41797SOL    HW127398   1.426   7.398   9.313
41797SOL    HW227399   1.281   7.426   9.346
41798SOL     OW27400  10.071   0.342   5.499
41798SOL    HW127401   9.991   0.370   5.455
41798SOL    HW227402  10.113   0.283   5.435
41799SOL     OW27403   0.043   0.954   3.900
41799SOL    HW127404   0.079   0.927   3.815
41799SOL    HW227405   0.002   1.039   3.883
41800SOL     OW27406   4.153   0.025   5.368
41800SOL    HW127407   4.085  -0.023   5.416
41800SOL    HW227408   4.108   0.060   5.291
41801SOL     OW27409   9.142   0.192   6.091
41801SOL    HW127410   9.207   0.257   6.066
41801SOL    HW227411   9.058   0.232   6.070
41802SOL     OW27412   6.389  10.320   7.617
41802SOL    HW127413   6.361  10.383   7.682
41802SOL    HW227414   6.485  10.323   7.620
41803SOL     OW27415   1.256   9.297   9.581
41803SOL    HW127416   1.221   9.226   9.635
41803SOL    HW227417   1.288   9.362   9.643
41804SOL     OW27418   2.621   2.969  10.899
41804SOL    HW127419   2.561   2.990  10.970
41804SOL    HW227420   2.665   3.051  10.879
41805SOL     OW27421   7.006  10.434   0.720
41805SOL    HW127422   7.081  10.383   0.690
41805SOL    HW227423   7.038  10.481   0.797
41806SOL     OW27424   8.483   8.507   8.488
41806SOL    HW127425   8.397   8.483   8.452
41806SOL    HW227426   8.465   8.578   8.549
41807SOL     OW27427   0.938   3.726   8.922
41807SOL    HW127428   1.025   3.702   8.890
41807SOL    HW227429   0.878   3.676   8.866
41808SOL     OW27430   1.804   7.136   7.467
41808SOL    HW127431   1.787   7.078   7.393
41808SOL    HW227432   1.736   7.115   7.530
41809SOL     OW27433   1.414   9.168   6.045
41809SOL    HW127434   1.485   9.189   6.105
41809SOL    HW227435   1.440   9.209   5.962
41810SOL     OW27436  10.427   8.261   2.403
41810SOL    HW127437  10.344   8.308   2.399
41810SOL    HW227438  10.403   8.172   2.431
41811SOL     OW27439   4.631   8.522   1.595
41811SOL    HW127440   4.684   8.595   1.563
41811SOL    HW227441   4.547   8.531   1.550
41812SOL     OW27442   8.172   0.334   8.657
41812SOL    HW127443   8.085   0.305   8.684
41812SOL    HW227444   8.209   0.258   8.611
41813SOL     OW27445   8.634   2.981   3.060
41813SOL    HW127446   8.627   3.075   3.073
41813SOL    HW227447   8.685   2.950   3.135
41814SOL     OW27448   2.906   5.559   9.742
41814SOL    HW127449   2.894   5.465   9.755
41814SOL    HW227450   2.836   5.584   9.681
41815SOL     OW27451   8.183   6.079   8.818
41815SOL    HW127452   8.221   6.025   8.748
41815SOL    HW227453   8.243   6.068   8.891
41816SOL     OW27454   5.694  10.098   1.361
41816SOL    HW127455   5.653  10.180   1.387
41816SOL    HW227456   5.669  10.086   1.269
41817SOL     OW27457   4.081   7.276   2.397
41817SOL    HW127458   4.093   7.205   2.460
41817SOL    HW227459   4.036   7.235   2.323
41818SOL     OW27460   9.435   3.424   1.432
41818SOL    HW127461   9.373   3.475   1.483
41818SOL    HW227462   9.391   3.340   1.416
41819SOL     OW27463   9.513   4.729   5.328
41819SOL    HW127464   9.515   4.729   5.423
41819SOL    HW227465   9.499   4.820   5.303
41820SOL     OW27466  10.914   7.694   8.289
41820SOL    HW127467  10.888   7.635   8.218
41820SOL    HW227468  10.909   7.640   8.368
41821SOL     OW27469   1.773   4.864  10.211
41821SOL    HW127470   1.844   4.895  10.155
41821SOL    HW227471   1.815   4.846  10.295
41822SOL     OW27472   3.419  10.809   5.646
41822SOL    HW127473   3.454  10.861   5.719
41822SOL    HW227474   3.330  10.841   5.633
41823SOL     OW27475   9.247   7.844   6.939
41823SOL    HW127476   9.156   7.816   6.944
41823SOL    HW227477   9.298   7.764   6.954
41824SOL     OW27478   0.298   7.475   7.787
41824SOL    HW127479   0.298   7.389   7.745
41824SOL    HW227480   0.373   7.473   7.846
41825SOL     OW27481   8.545   5.637   5.860
41825SOL    HW127482   8.622   5.635   5.802
41825SOL    HW227483   8.507   5.549   5.853
41826SOL     OW27484   6.964   8.761   9.106
41826SOL    HW127485   6.942   8.849   9.077
41826SOL    HW227486   7.037   8.772   9.167
41827SOL     OW27487   8.716   6.158   4.483
41827SOL    HW127488   8.732   6.223   4.551
41827SOL    HW227489   8.632   6.182   4.445
41828SOL     OW27490  10.220   8.787   5.673
41828SOL    HW127491  10.218   8.849   5.745
41828SOL    HW227492  10.236   8.702   5.715
41829SOL     OW27493   2.728   6.064   5.948
41829SOL    HW127494   2.772   6.113   6.017
41829SOL    HW227495   2.783   5.986   5.935
41830SOL     OW27496   5.473   9.204   8.462
41830SOL    HW127497   5.523   9.187   8.541
41830SOL    HW227498   5.384   9.222   8.493
41831SOL     OW27499   8.644  10.060   1.287
41831SOL    HW127500   8.655  10.127   1.219
41831SOL    HW227501   8.550  10.041   1.287
41832SOL     OW27502   3.450   2.464   6.330
41832SOL    HW127503   3.358   2.488   6.320
41832SOL    HW227504   3.473   2.493   6.418
41833SOL     OW27505   9.743   2.896   8.308
41833SOL    HW127506   9.691   2.855   8.238
41833SOL    HW227507   9.830   2.905   8.270
41834SOL     OW27508   7.650   1.011   9.712
41834SOL    HW127509   7.591   1.000   9.786
41834SOL    HW227510   7.738   0.997   9.748
41835SOL     OW27511   7.150   7.154   5.194
41835SOL    HW127512   7.205   7.161   5.115
41835SOL    HW227513   7.061   7.163   5.161
41836SOL     OW27514   1.457   4.136   8.936
41836SOL    HW127515   1.477   4.092   9.018
41836SOL    HW227516   1.365   4.161   8.944
41837SOL     OW27517   3.414   9.169   6.130
41837SOL    HW127518   3.390   9.105   6.063
41837SOL    HW227519   3.507   9.187   6.114
41838SOL     OW27520   1.501   6.546   2.681
41838SOL    HW127521   1.473   6.618   2.737
41838SOL    HW227522   1.434   6.541   2.613
41839SOL     OW27523   0.481   3.151  10.374
41839SOL    HW127524   0.432   3.231  10.390
41839SOL    HW227525   0.527   3.134  10.456
41840SOL     OW27526  10.678   7.227   9.228
41840SOL    HW127527  10.639   7.182   9.303
41840SOL    HW227528  10.710   7.310   9.263
41841SOL     OW27529   1.398  10.214   8.909
41841SOL    HW127530   1.355  10.253   8.833
41841SOL    HW227531   1.350  10.248   8.984
41842SOL     OW27532   5.242  10.830   6.177
41842SOL    HW127533   5.202  10.880   6.105
41842SOL    HW227534   5.228  10.738   6.153
41843SOL     OW27535   7.644   9.059   3.398
41843SOL    HW127536   7.550   9.048   3.414
41843SOL    HW227537   7.670   8.979   3.352
41844SOL     OW27538   0.737   6.816  10.960
41844SOL    HW127539   0.831   6.807  10.977
41844SOL    HW227540   0.730   6.813  10.864
41845SOL     OW27541   3.722  10.802   8.323
41845SOL    HW127542   3.794  10.840   8.272
41845SOL    HW227543   3.755  10.717   8.352
41846SOL     OW27544   3.157   7.733   3.603
41846SOL    HW127545   3.157   7.827   3.618
41846SOL    HW227546   3.078   7.701   3.647
41847SOL     OW27547   3.554   8.408  10.513
41847SOL    HW127548   3.586   8.346  10.447
41847SOL    HW227549   3.516   8.479  10.461
41848SOL     OW27550  10.755   5.444  10.940
41848SOL    HW127551  10.800   5.364  10.969
41848SOL    HW227552  10.753   5.500  11.017
41849SOL     OW27553   9.086   8.346  10.299
41849SOL    HW127554   9.074   8.336  10.204
41849SOL    HW227555   9.003   8.383  10.330
41850SOL     OW27556   4.558   3.758   9.997
41850SOL    HW127557   4.565   3.692   9.928
41850SOL    HW227558   4.646   3.794  10.003
41851SOL     OW27559   2.519   7.927  10.872
41851SOL    HW127560   2.541   7.843  10.830
41851SOL    HW227561   2.494   7.903  10.961
41852SOL     OW27562   7.653   0.949  10.774
41852SOL    HW127563   7.669   1.007  10.848
41852SOL    HW227564   7.710   0.873  10.789
41853SOL     OW27565   8.098   8.146   8.544
41853SOL    HW127566   8.100   8.189   8.458
41853SOL    HW227567   8.190   8.130   8.565
41854SOL     OW27568   6.075   1.961   2.813
41854SOL    HW127569   6.028   1.907   2.876
41854SOL    HW227570   6.150   1.995   2.861
41855SOL     OW27571   0.658   4.879   4.498
41855SOL    HW127572   0.722   4.812   4.524
41855SOL    HW227573   0.576   4.849   4.537
41856SOL     OW27574   2.945   8.519   1.074
41856SOL    HW127575   2.988   8.528   1.159
41856SOL    HW227576   2.855   8.495   1.095
41857SOL     OW27577   1.091   2.955   8.923
41857SOL    HW127578   1.085   3.028   8.985
41857SOL    HW227579   1.184   2.951   8.899
41858SOL     OW27580   0.482   5.299   8.834
41858SOL    HW127581   0.444   5.256   8.757
41858SOL    HW227582   0.496   5.227   8.896
41859SOL     OW27583   5.337   6.455  10.160
41859SOL    HW127584   5.289   6.372  10.152
41859SOL    HW227585   5.388   6.460  10.079
41860SOL     OW27586   0.551   6.357   0.327
41860SOL    HW127587   0.597   6.423   0.275
41860SOL    HW227588   0.507   6.407   0.396
41861SOL     OW27589   2.002   9.666   0.730
41861SOL    HW127590   1.912   9.664   0.760
41861SOL    HW227591   2.050   9.614   0.794
41862SOL     OW27592   9.399   5.674   8.995
41862SOL    HW127593   9.305   5.689   8.988
41862SOL    HW227594   9.427   5.730   9.067
41863SOL     OW27595   8.456   4.427   9.737
41863SOL    HW127596   8.491   4.339   9.720
41863SOL    HW227597   8.506   4.484   9.678
41864SOL     OW27598   3.723   3.885   8.872
41864SOL    HW127599   3.756   3.960   8.920
41864SOL    HW227600   3.628   3.895   8.872
41865SOL     OW27601   2.669  11.047   0.530
41865SOL    HW127602   2.593  11.089   0.571
41865SOL    HW227603   2.674  10.961   0.571
41866SOL     OW27604  10.085   2.365   0.113
41866SOL    HW127605  10.160   2.403   0.067
41866SOL    HW227606  10.072   2.422   0.189
41867SOL     OW27607   9.243   4.644   2.926
41867SOL    HW127608   9.149   4.632   2.940
41867SOL    HW227609   9.256   4.626   2.833
41868SOL     OW27610   8.510   3.166   6.808
41868SOL    HW127611   8.433   3.109   6.799
41868SOL    HW227612   8.540   3.152   6.897
41869SOL     OW27613   4.983   4.009   7.333
41869SOL    HW127614   5.059   4.051   7.373
41869SOL    HW227615   4.948   3.952   7.401
41870SOL     OW27616   3.367   9.519   1.953
41870SOL    HW127617   3.328   9.431   1.957
41870SOL    HW227618   3.422   9.525   2.031
41871SOL     OW27619  10.063   6.295   7.666
41871SOL    HW127620  10.139   6.344   7.698
41871SOL    HW227621  10.093   6.254   7.584
41872SOL     OW27622  10.653   0.293   5.957
41872SOL    HW127623  10.628   0.285   5.865
41872SOL    HW227624  10.706   0.372   5.961
41873SOL     OW27625   8.067   6.839   5.070
41873SOL    HW127626   8.097   6.812   5.157
41873SOL    HW227627   7.997   6.901   5.087
41874SOL     OW27628   8.006   4.452  10.760
41874SOL    HW127629   8.085   4.405  10.789
41874SOL    HW227630   8.039   4.521  10.702
41875SOL     OW27631   2.690   4.911   2.171
41875SOL    HW127632   2.719   5.002   2.164
41875SOL    HW227633   2.632   4.898   2.095
41876SOL     OW27634   2.948   3.988   8.291
41876SOL    HW127635   3.023   4.047   8.290
41876SOL    HW227636   2.956   3.938   8.209
41877SOL     OW27637  10.381   9.506  10.441
41877SOL    HW127638  10.408   9.414  10.438
41877SOL    HW227639  10.359   9.526  10.350
41878SOL     OW27640   4.898  10.980   0.553
41878SOL    HW127641   4.895  11.061   0.604
41878SOL    HW227642   4.832  10.924   0.593
41879SOL     OW27643   8.860   4.588   8.355
41879SOL    HW127644   8.815   4.529   8.293
41879SOL    HW227645   8.792   4.648   8.384
41880SOL     OW27646   1.237   8.000   7.887
41880SOL    HW127647   1.311   7.978   7.943
41880SOL    HW227648   1.204   8.083   7.922
41881SOL     OW27649   1.035   4.702   4.777
41881SOL    HW127650   1.046   4.793   4.805
41881SOL    HW227651   0.950   4.700   4.734
41882SOL     OW27652   0.401   4.932   8.981
41882SOL    HW127653   0.343   4.859   9.004
41882SOL    HW227654   0.456   4.944   9.058
41883SOL     OW27655   5.312   9.653   0.053
41883SOL    HW127656   5.354   9.723   0.004
41883SOL    HW227657   5.385   9.603   0.091
41884SOL     OW27658   5.287   8.104   1.942
41884SOL    HW127659   5.192   8.111   1.942
41884SOL    HW227660   5.304   8.012   1.919
41885SOL     OW27661   1.373   4.498   6.936
41885SOL    HW127662   1.450   4.503   6.992
41885SOL    HW227663   1.301   4.530   6.990
41886SOL     OW27664   0.341   1.607   8.301
41886SOL    HW127665   0.392   1.621   8.380
41886SOL    HW227666   0.257   1.574   8.332
41887SOL     OW27667   3.447   5.776   2.575
41887SOL    HW127668   3.455   5.769   2.480
41887SOL    HW227669   3.510   5.712   2.609
41888SOL     OW27670   8.806   3.029   7.414
41888SOL    HW127671   8.876   3.000   7.355
41888SOL    HW227672   8.799   3.123   7.398
41889SOL     OW27673   7.246  10.294   6.884
41889SOL    HW127674   7.305  10.230   6.844
41889SOL    HW227675   7.161  10.276   6.844
41890SOL     OW27676   9.136   5.625   8.916
41890SOL    HW127677   9.059   5.623   8.973
41890SOL    HW227678   9.168   5.535   8.916
41891SOL     OW27679   6.703  10.685   9.082
41891SOL    HW127680   6.631  10.735   9.044
41891SOL    HW227681   6.730  10.737   9.158
41892SOL     OW27682   0.729   7.494   7.660
41892SOL    HW127683   0.779   7.542   7.726
41892SOL    HW227684   0.710   7.558   7.592
41893SOL     OW27685   2.462   0.257   8.379
41893SOL    HW127686   2.472   0.233   8.287
41893SOL    HW227687   2.523   0.329   8.392
41894SOL     OW27688  10.368   8.316   5.904
41894SOL    HW127689  10.293   8.323   5.962
41894SOL    HW227690  10.443   8.339   5.958
41895SOL     OW27691   5.306   8.708   7.982
41895SOL    HW127692   5.376   8.758   7.939
41895SOL    HW227693   5.352   8.641   8.032
41896SOL     OW27694   6.456   4.493   2.016
41896SOL    HW127695   6.490   4.522   2.100
41896SOL    HW227696   6.376   4.543   2.003
41897SOL     OW27697   0.787   9.423   0.644
41897SOL    HW127698   0.734   9.343   0.645
41897SOL    HW227699   0.875   9.394   0.669
41898SOL     OW27700   1.564   2.127   6.303
41898SOL    HW127701   1.490   2.178   6.335
41898SOL    HW227702   1.601   2.085   6.381
41899SOL     OW27703   9.206  10.712   0.800
41899SOL    HW127704   9.243  10.632   0.837
41899SOL    HW227705   9.204  10.774   0.873
41900SOL     OW27706   6.907   2.984   0.673
41900SOL    HW127707   6.870   3.004   0.587
41900SOL    HW227708   6.857   2.908   0.704
41901SOL     OW27709  11.060   6.686   9.949
41901SOL    HW127710  11.087   6.656   9.862
41901SOL    HW227711  11.002   6.617   9.981
41902SOL     OW27712  10.630   7.819   7.772
41902SOL    HW127713  10.587   7.899   7.741
41902SOL    HW227714  10.635   7.763   7.694
41903SOL     OW27715   9.247   8.969   6.216
41903SOL    HW127716   9.333   8.938   6.186
41903SOL    HW227717   9.266   9.030   6.286
41904SOL     OW27718   1.521   8.947   6.833
41904SOL    HW127719   1.437   8.902   6.821
41904SOL    HW227720   1.499   9.039   6.839
41905SOL     OW27721   7.261   6.634   6.270
41905SOL    HW127722   7.190   6.604   6.327
41905SOL    HW227723   7.300   6.553   6.236
41906SOL     OW27724   2.379   8.346   9.954
41906SOL    HW127725   2.359   8.439   9.951
41906SOL    HW227726   2.404   8.329  10.044
41907SOL     OW27727   8.200   8.061  10.579
41907SOL    HW127728   8.156   7.986  10.538
41907SOL    HW227729   8.240   8.024  10.658
41908SOL     OW27730   2.140   9.678   1.663
41908SOL    HW127731   2.231   9.661   1.688
41908SOL    HW227732   2.099   9.710   1.743
41909SOL     OW27733   8.937   5.784   4.610
41909SOL    HW127734   8.997   5.839   4.660
41909SOL    HW227735   8.911   5.715   4.671
41910SOL     OW27736   2.817   6.508   8.045
41910SOL    HW127737   2.879   6.443   8.011
41910SOL    HW227738   2.846   6.591   8.007
41911SOL     OW27739   6.153  10.512   8.719
41911SOL    HW127740   6.066  10.495   8.755
41911SOL    HW227741   6.213  10.494   8.791
41912SOL     OW27742   3.745  10.913   5.675
41912SOL    HW127743   3.821  10.958   5.713
41912SOL    HW227744   3.676  10.922   5.740
41913SOL     OW27745   1.888   4.527   3.387
41913SOL    HW127746   1.863   4.475   3.463
41913SOL    HW227747   1.825   4.599   3.385
41914SOL     OW27748   7.797   8.703   7.205
41914SOL    HW127749   7.752   8.639   7.260
41914SOL    HW227750   7.872   8.731   7.257
41915SOL     OW27751   6.841   9.472   4.204
41915SOL    HW127752   6.794   9.530   4.144
41915SOL    HW227753   6.791   9.390   4.202
41916SOL     OW27754   8.651   3.924   5.707
41916SOL    HW127755   8.581   3.961   5.654
41916SOL    HW227756   8.671   3.991   5.771
41917SOL     OW27757   0.909   5.600   5.053
41917SOL    HW127758   0.845   5.667   5.030
41917SOL    HW227759   0.898   5.533   4.985
41918SOL     OW27760   3.413   3.363   1.065
41918SOL    HW127761   3.416   3.326   0.976
41918SOL    HW227762   3.472   3.307   1.116
41919SOL     OW27763   8.938   2.774   8.534
41919SOL    HW127764   9.017   2.824   8.513
41919SOL    HW227765   8.936   2.705   8.468
41920SOL     OW27766   6.521   6.621  10.786
41920SOL    HW127767   6.611   6.634  10.816
41920SOL    HW227768   6.512   6.526  10.778
41921SOL     OW27769   4.430   6.587   2.941
41921SOL    HW127770   4.490   6.644   2.893
41921SOL    HW227771   4.471   6.500   2.937
41922SOL     OW27772   1.091   4.855   5.148
41922SOL    HW127773   1.159   4.916   5.175
41922SOL    HW227774   1.058   4.890   5.065
41923SOL     OW27775   8.916   4.621   3.606
41923SOL    HW127776   8.840   4.679   3.600
41923SOL    HW227777   8.918   4.576   3.521
41924SOL     OW27778   0.645   7.643   7.195
41924SOL    HW127779   0.676   7.572   7.138
41924SOL    HW227780   0.693   7.631   7.277
41925SOL     OW27781   7.807   7.645   7.740
41925SOL    HW127782   7.775   7.712   7.800
41925SOL    HW227783   7.864   7.590   7.794
41926SOL     OW27784   7.976   4.831   9.173
41926SOL    HW127785   7.973   4.742   9.208
41926SOL    HW227786   8.004   4.885   9.247
41927SOL     OW27787   1.288   7.776   5.563
41927SOL    HW127788   1.358   7.711   5.572
41927SOL    HW227789   1.299   7.809   5.474
41928SOL     OW27790   6.741   2.755   9.505
41928SOL    HW127791   6.677   2.755   9.576
41928SOL    HW227792   6.822   2.786   9.545
41929SOL     OW27793   4.179   9.303   7.219
41929SOL    HW127794   4.192   9.268   7.307
41929SOL    HW227795   4.240   9.376   7.212
41930SOL     OW27796   5.257   7.330   6.481
41930SOL    HW127797   5.220   7.408   6.441
41930SOL    HW227798   5.345   7.356   6.508
41931SOL     OW27799   2.621   5.562  10.989
41931SOL    HW127800   2.704   5.608  11.000
41931SOL    HW227801   2.562   5.605  11.050
41932SOL     OW27802   7.015   6.027   9.102
41932SOL    HW127803   7.098   6.010   9.057
41932SOL    HW227804   6.951   6.035   9.031
41933SOL     OW27805   5.048   3.029   0.391
41933SOL    HW127806   5.122   2.976   0.361
41933SOL    HW227807   4.971   2.984   0.356
41934SOL     OW27808   6.364   0.343   1.411
41934SOL    HW127809   6.393   0.398   1.483
41934SOL    HW227810   6.326   0.404   1.347
41935SOL     OW27811   7.483   3.645   6.886
41935SOL    HW127812   7.449   3.642   6.975
41935SOL    HW227813   7.578   3.637   6.896
41936SOL     OW27814   3.459  10.308   6.764
41936SOL    HW127815   3.542  10.344   6.794
41936SOL    HW227816   3.447  10.228   6.816
41937SOL     OW27817  10.827   6.900  10.727
41937SOL    HW127818  10.788   6.926  10.643
41937SOL    HW227819  10.842   6.806  10.717
41938SOL     OW27820  11.083   7.531   1.833
41938SOL    HW127821  11.167   7.575   1.845
41938SOL    HW227822  11.022   7.580   1.888
41939SOL     OW27823   6.774   0.021   5.584
41939SOL    HW127824   6.805   0.030   5.674
41939SOL    HW227825   6.831  -0.046   5.546
41940SOL     OW27826   7.090   1.612   4.514
41940SOL    HW127827   7.161   1.675   4.523
41940SOL    HW227828   7.010   1.663   4.529
41941SOL     OW27829   2.953   4.992   0.624
41941SOL    HW127830   2.943   4.931   0.550
41941SOL    HW227831   3.001   5.066   0.587
41942SOL     OW27832  10.267   6.093   7.919
41942SOL    HW127833  10.285   6.044   7.999
41942SOL    HW227834  10.216   6.033   7.865
41943SOL     OW27835   0.496   6.376   7.906
41943SOL    HW127836   0.567   6.416   7.855
41943SOL    HW227837   0.510   6.407   7.995
41944SOL     OW27838   3.479   4.812   0.056
41944SOL    HW127839   3.384   4.803   0.051
41944SOL    HW227840   3.503   4.767   0.138
41945SOL     OW27841   7.653  10.505   9.278
41945SOL    HW127842   7.583  10.524   9.215
41945SOL    HW227843   7.731  10.492   9.224
41946SOL     OW27844   0.286   6.936   7.638
41946SOL    HW127845   0.195   6.960   7.619
41946SOL    HW227846   0.279   6.862   7.699
41947SOL     OW27847   5.818   7.664   5.263
41947SOL    HW127848   5.724   7.659   5.281
41947SOL    HW227849   5.850   7.575   5.278
41948SOL     OW27850   3.061   7.549  10.910
41948SOL    HW127851   2.966   7.550  10.897
41948SOL    HW227852   3.083   7.456  10.916
41949SOL     OW27853   5.092  10.615   5.598
41949SOL    HW127854   5.093  10.528   5.558
41949SOL    HW227855   5.076  10.675   5.525
41950SOL     OW27856   9.838  11.099   5.239
41950SOL    HW127857   9.857  11.102   5.145
41950SOL    HW227858   9.875  11.016   5.268
41951SOL     OW27859   2.040   0.844   7.982
41951SOL    HW127860   2.027   0.938   7.969
41951SOL    HW227861   2.032   0.806   7.894
41952SOL     OW27862   7.421   9.610  11.041
41952SOL    HW127863   7.441   9.619  10.948
41952SOL    HW227864   7.454   9.523  11.063
41953SOL     OW27865   2.090   8.600   5.439
41953SOL    HW127866   2.039   8.649   5.374
41953SOL    HW227867   2.052   8.625   5.523
41954SOL     OW27868   2.232   7.784   6.002
41954SOL    HW127869   2.320   7.780   6.040
41954SOL    HW227870   2.221   7.699   5.958
41955SOL     OW27871   4.841   9.606   4.678
41955SOL    HW127872   4.829   9.601   4.583
41955SOL    HW227873   4.906   9.675   4.690
41956SOL     OW27874   9.678   5.160   9.281
41956SOL    HW127875   9.674   5.229   9.214
41956SOL    HW227876   9.758   5.112   9.260
41957SOL     OW27877  10.601   6.644   6.878
41957SOL    HW127878  10.585   6.558   6.917
41957SOL    HW227879  10.529   6.699   6.908
41958SOL     OW27880   5.079   5.451   9.841
41958SOL    HW127881   5.018   5.495   9.900
41958SOL    HW227882   5.083   5.361   9.873
41959SOL     OW27883   2.646   0.345   3.300
41959SOL    HW127884   2.613   0.320   3.386
41959SOL    HW227885   2.736   0.313   3.298
41960SOL     OW27886  10.362   8.107   7.928
41960SOL    HW127887  10.420   8.172   7.967
41960SOL    HW227888  10.414   8.066   7.859
41961SOL     OW27889  10.169   8.116   6.182
41961SOL    HW127890  10.075   8.120   6.163
41961SOL    HW227891  10.199   8.037   6.136
41962SOL     OW27892   1.512   3.262   1.833
41962SOL    HW127893   1.605   3.244   1.849
41962SOL    HW227894   1.479   3.294   1.916
41963SOL     OW27895   0.958   3.679   6.571
41963SOL    HW127896   1.017   3.618   6.526
41963SOL    HW227897   0.916   3.626   6.638
41964SOL     OW27898   9.354   9.131  10.204
41964SOL    HW127899   9.322   9.221  10.199
41964SOL    HW227900   9.444   9.136  10.172
41965SOL     OW27901   2.886   4.138   8.547
41965SOL    HW127902   2.928   4.165   8.465
41965SOL    HW227903   2.807   4.192   8.553
41966SOL     OW27904   9.322   9.322   5.670
41966SOL    HW127905   9.364   9.240   5.645
41966SOL    HW227906   9.388   9.389   5.654
41967SOL     OW27907   3.264   3.078   7.258
41967SOL    HW127908   3.222   3.135   7.194
41967SOL    HW227909   3.345   3.124   7.282
41968SOL     OW27910   9.144   7.909   5.807
41968SOL    HW127911   9.073   7.845   5.813
41968SOL    HW227912   9.102   7.994   5.820
41969SOL     OW27913   9.966   9.688   0.249
41969SOL    HW127914   9.902   9.671   0.318
41969SOL    HW227915  10.017   9.607   0.243
41970SOL     OW27916   1.789   9.669   5.049
41970SOL    HW127917   1.714   9.666   4.990
41970SOL    HW227918   1.773   9.599   5.112
41971SOL     OW27919   4.194   5.760   1.090
41971SOL    HW127920   4.197   5.782   0.997
41971SOL    HW227921   4.172   5.842   1.133
41972SOL     OW27922   4.695   9.857   2.426
41972SOL    HW127923   4.719   9.840   2.335
41972SOL    HW227924   4.768   9.907   2.461
41973SOL     OW27925   4.679   2.418  10.971
41973SOL    HW127926   4.636   2.501  10.991
41973SOL    HW227927   4.664   2.363  11.048
41974SOL     OW27928   9.513   2.732  10.250
41974SOL    HW127929   9.457   2.723  10.327
41974SOL    HW227930   9.598   2.699  10.278
41975SOL     OW27931   3.500   6.046   8.874
41975SOL    HW127932   3.460   5.969   8.833
41975SOL    HW227933   3.496   6.028   8.968
41976SOL     OW27934   5.390  11.008   4.616
41976SOL    HW127935   5.373  11.054   4.698
41976SOL    HW227936   5.326  10.937   4.614
41977SOL     OW27937   7.459   7.992  10.393
41977SOL    HW127938   7.382   8.037  10.428
41977SOL    HW227939   7.433   7.965  10.305
41978SOL     OW27940   4.858   6.533   2.236
41978SOL    HW127941   4.846   6.626   2.255
41978SOL    HW227942   4.771   6.495   2.247
41979SOL     OW27943   9.582   8.889   3.027
41979SOL    HW127944   9.661   8.936   2.998
41979SOL    HW227945   9.615   8.823   3.088
41980SOL     OW27946   3.317   5.860   4.008
41980SOL    HW127947   3.340   5.854   3.915
41980SOL    HW227948   3.394   5.827   4.053
41981SOL     OW27949   2.597   7.455   0.550
41981SOL    HW127950   2.584   7.458   0.644
41981SOL    HW227951   2.624   7.365   0.532
41982SOL     OW27952   9.397   0.390   6.926
41982SOL    HW127953   9.307   0.360   6.911
41982SOL    HW227954   9.426   0.341   7.003
41983SOL     OW27955  10.198   6.608   7.495
41983SOL    HW127956  10.266   6.568   7.441
41983SOL    HW227957  10.241   6.683   7.536
41984SOL     OW27958  10.855   5.318   5.194
41984SOL    HW127959  10.889   5.235   5.160
41984SOL    HW227960  10.797   5.292   5.266
41985SOL     OW27961   2.369   4.939   9.410
41985SOL    HW127962   2.286   4.968   9.372
41985SOL    HW227963   2.392   5.008   9.472
41986SOL     OW27964   7.734   3.847   6.759
41986SOL    HW127965   7.705   3.871   6.671
41986SOL    HW227966   7.727   3.928   6.809
41987SOL     OW27967   0.761   1.547   7.964
41987SOL    HW127968   0.667   1.562   7.956
41987SOL    HW227969   0.768   1.461   8.006
41988SOL     OW27970   0.557  10.857   9.077
41988SOL    HW127971   0.634  10.888   9.030
41988SOL    HW227972   0.503  10.816   9.009
41989SOL     OW27973   5.203   5.583   2.082
41989SOL    HW127974   5.148   5.646   2.036
41989SOL    HW227975   5.147   5.506   2.095
41990SOL     OW27976   5.831   7.446  11.021
41990SOL    HW127977   5.761   7.403  11.070
41990SOL    HW227978   5.847   7.527  11.068
41991SOL     OW27979   4.779   5.326   2.430
41991SOL    HW127980   4.800   5.295   2.518
41991SOL    HW227981   4.699   5.377   2.441
41992SOL     OW27982   1.936   3.880   3.514
41992SOL    HW127983   1.953   3.830   3.434
41992SOL    HW227984   1.843   3.867   3.531
41993SOL     OW27985   6.690   8.815   5.972
41993SOL    HW127986   6.732   8.887   5.925
41993SOL    HW227987   6.723   8.736   5.928
41994SOL     OW27988   1.620   9.434   6.406
41994SOL    HW127989   1.686   9.473   6.463
41994SOL    HW227990   1.538   9.442   6.455
41995SOL     OW27991   1.121   8.886   7.886
41995SOL    HW127992   1.154   8.811   7.836
41995SOL    HW227993   1.070   8.847   7.956
41996SOL     OW27994   2.338   1.387   8.046
41996SOL    HW127995   2.374   1.429   8.124
41996SOL    HW227996   2.246   1.413   8.044
41997SOL     OW27997   1.622   4.506   7.234
41997SOL    HW127998   1.717   4.505   7.242
41997SOL    HW227999   1.591   4.454   7.308
41998SOL     OW28000   9.856   9.734  10.137
41998SOL    HW128001   9.926   9.799  10.132
41998SOL    HW228002   9.788   9.767  10.079
41999SOL     OW28003   3.694   2.178   7.223
41999SOL    HW128004   3.601   2.158   7.231
41999SOL    HW228005   3.731   2.101   7.180
42000SOL     OW28006   2.425   3.727   4.604
42000SOL    HW128007   2.396   3.641   4.572
42000SOL    HW228008   2.347   3.782   4.601
42001SOL     OW28009   4.398   3.832   9.698
42001SOL    HW128010   4.486   3.850   9.732
42001SOL    HW228011   4.403   3.856   9.605
42002SOL     OW28012   5.008   7.185   3.614
42002SOL    HW128013   4.947   7.253   3.642
42002SOL    HW228014   5.092   7.229   3.606
42003SOL     OW28015   7.156   0.385   9.367
42003SOL    HW128016   7.130   0.406   9.277
42003SOL    HW228017   7.224   0.449   9.388
42004SOL     OW28018  10.515   2.954   9.505
42004SOL    HW128019  10.548   2.969   9.416
42004SOL    HW228020  10.565   3.014   9.560
42005SOL     OW28021   7.186   7.906   7.777
42005SOL    HW128022   7.148   7.904   7.689
42005SOL    HW228023   7.138   7.974   7.823
42006SOL     OW28024   9.591   3.078   0.064
42006SOL    HW128025   9.534   3.118   0.130
42006SOL    HW228026   9.662   3.141   0.052
42007SOL     OW28027   9.807  10.570   3.480
42007SOL    HW128028   9.828  10.658   3.511
42007SOL    HW228029   9.803  10.516   3.559
42008SOL     OW28030  10.050  10.373   4.642
42008SOL    HW128031  10.040  10.438   4.573
42008SOL    HW228032  10.138  10.389   4.677
42009SOL     OW28033   8.865   5.637   4.825
42009SOL    HW128034   8.911   5.717   4.850
42009SOL    HW228035   8.786   5.636   4.879
42010SOL     OW28036  10.298   2.420  11.007
42010SOL    HW128037  10.351   2.497  11.029
42010SOL    HW228038  10.358   2.346  11.018
42011SOL     OW28039   5.173   0.976  10.736
42011SOL    HW128040   5.246   1.014  10.687
42011SOL    HW228041   5.125   0.925  10.671
42012SOL     OW28042   7.524   9.934   9.081
42012SOL    HW128043   7.591   9.874   9.114
42012SOL    HW228044   7.572  10.014   9.060
42013SOL     OW28045   2.664   5.270  10.161
42013SOL    HW128046   2.661   5.358  10.123
42013SOL    HW228047   2.723   5.277  10.236
42014SOL     OW28048  10.863   6.666   8.979
42014SOL    HW128049  10.908   6.644   9.060
42014SOL    HW228050  10.906   6.612   8.912
42015SOL     OW28051   0.096   9.348   0.388
42015SOL    HW128052   0.143   9.312   0.312
42015SOL    HW228053   0.144   9.427   0.411
42016SOL     OW28054   5.639   7.308   9.612
42016SOL    HW128055   5.547   7.295   9.635
42016SOL    HW228056   5.686   7.301   9.695
42017SOL     OW28057  10.257   2.596   3.152
42017SOL    HW128058  10.296   2.551   3.227
42017SOL    HW228059  10.332   2.626   3.100
42018SOL     OW28060   9.715   0.315   2.707
42018SOL    HW128061   9.708   0.410   2.715
42018SOL    HW228062   9.634   0.282   2.746
42019SOL     OW28063   1.764  10.635   8.971
42019SOL    HW128064   1.759  10.684   8.889
42019SOL    HW228065   1.846  10.585   8.964
42020SOL     OW28066   2.619  11.001   2.898
42020SOL    HW128067   2.571  11.041   2.825
42020SOL    HW228068   2.691  10.954   2.856
42021SOL     OW28069   0.432   9.556   0.526
42021SOL    HW128070   0.471   9.633   0.485
42021SOL    HW228071   0.452   9.565   0.619
42022SOL     OW28072   0.798   2.303  10.844
42022SOL    HW128073   0.731   2.356  10.887
42022SOL    HW228074   0.881   2.343  10.870
42023SOL     OW28075   7.631   6.702  10.226
42023SOL    HW128076   7.571   6.650  10.172
42023SOL    HW228077   7.674   6.760  10.164
42024SOL     OW28078   4.791   8.928   3.702
42024SOL    HW128079   4.832   9.012   3.718
42024SOL    HW228080   4.724   8.946   3.636
42025SOL     OW28081   0.306  10.968   6.690
42025SOL    HW128082   0.375  10.903   6.682
42025SOL    HW228083   0.263  10.948   6.773
42026SOL     OW28084   2.176   8.253   0.575
42026SOL    HW128085   2.194   8.258   0.481
42026SOL    HW228086   2.256   8.287   0.616
42027SOL     OW28087   7.182   2.272   9.225
42027SOL    HW128088   7.274   2.294   9.211
42027SOL    HW228089   7.154   2.233   9.142
42028SOL     OW28090   8.076   6.393   0.666
42028SOL    HW128091   8.064   6.486   0.648
42028SOL    HW228092   8.147   6.389   0.730
42029SOL     OW28093   3.394   1.506   0.103
42029SOL    HW128094   3.386   1.494   0.198
42029SOL    HW228095   3.447   1.585   0.093
42030SOL     OW28096   2.334   5.100   3.633
42030SOL    HW128097   2.379   5.078   3.714
42030SOL    HW228098   2.313   5.015   3.593
42031SOL     OW28099   8.108   7.035   3.662
42031SOL    HW128100   8.023   7.076   3.677
42031SOL    HW228101   8.133   7.063   3.574
42032SOL     OW28102   6.028   2.832   9.413
42032SOL    HW128103   6.109   2.869   9.378
42032SOL    HW228104   5.967   2.835   9.339
42033SOL     OW28105   6.237   8.444   9.498
42033SOL    HW128106   6.187   8.385   9.441
42033SOL    HW228107   6.327   8.411   9.493
42034SOL     OW28108   9.896   5.567   9.108
42034SOL    HW128109   9.978   5.530   9.075
42034SOL    HW228110   9.831   5.498   9.093
42035SOL     OW28111   9.717   8.704   4.048
42035SOL    HW128112   9.642   8.645   4.055
42035SOL    HW228113   9.769   8.685   4.126
42036SOL     OW28114   8.565  11.045   9.402
42036SOL    HW128115   8.571  10.972   9.464
42036SOL    HW228116   8.655  11.075   9.392
42037SOL     OW28117   9.157   7.338   0.876
42037SOL    HW128118   9.251   7.319   0.872
42037SOL    HW228119   9.152   7.431   0.897
42038SOL     OW28120   9.464   2.854   2.488
42038SOL    HW128121   9.507   2.777   2.450
42038SOL    HW228122   9.410   2.888   2.417
42039SOL     OW28123   6.717   6.857  11.078
42039SOL    HW128124   6.679   6.812  11.153
42039SOL    HW228125   6.770   6.927  11.116
42040SOL     OW28126   2.095   2.475   5.735
42040SOL    HW128127   2.134   2.558   5.707
42040SOL    HW228128   2.001   2.488   5.725
42041SOL     OW28129  10.001   7.658   1.953
42041SOL    HW128130   9.929   7.626   1.898
42041SOL    HW228131   9.965   7.659   2.041
42042SOL     OW28132   0.699   9.729   4.527
42042SOL    HW128133   0.717   9.823   4.521
42042SOL    HW228134   0.737   9.692   4.447
42043SOL     OW28135  10.715   3.341  10.721
42043SOL    HW128136  10.733   3.434  10.728
42043SOL    HW228137  10.796   3.304  10.685
42044SOL     OW28138   1.369   5.849   8.361
42044SOL    HW128139   1.410   5.916   8.415
42044SOL    HW228140   1.326   5.790   8.423
42045SOL     OW28141   6.918  10.399   1.846
42045SOL    HW128142   7.013  10.409   1.849
42045SOL    HW228143   6.904  10.323   1.789
42046SOL     OW28144   8.156   5.818   7.309
42046SOL    HW128145   8.167   5.912   7.296
42046SOL    HW228146   8.215   5.796   7.381
42047SOL     OW28147   7.770   6.927   1.907
42047SOL    HW128148   7.832   6.968   1.967
42047SOL    HW228149   7.691   6.913   1.959
42048SOL     OW28150   7.337   8.450   8.352
42048SOL    HW128151   7.269   8.486   8.295
42048SOL    HW228152   7.333   8.355   8.336
42049SOL     OW28153   9.473   1.073   3.450
42049SOL    HW128154   9.509   0.989   3.479
42049SOL    HW228155   9.495   1.077   3.356
42050SOL     OW28156   9.117   7.954   3.061
42050SOL    HW128157   9.045   7.916   3.011
42050SOL    HW228158   9.111   7.913   3.147
42051SOL     OW28159   1.529   5.151   8.077
42051SOL    HW128160   1.611   5.114   8.043
42051SOL    HW228161   1.508   5.222   8.016
42052SOL     OW28162   1.815   7.507   5.817
42052SOL    HW128163   1.847   7.441   5.755
42052SOL    HW228164   1.873   7.582   5.803
42053SOL     OW28165   3.595   5.868   7.953
42053SOL    HW128166   3.551   5.812   8.017
42053SOL    HW228167   3.551   5.848   7.870
42054SOL     OW28168   8.538   3.885   8.471
42054SOL    HW128169   8.453   3.882   8.515
42054SOL    HW228170   8.590   3.947   8.522
42055SOL     OW28171   5.011   7.157   5.416
42055SOL    HW128172   4.977   7.155   5.505
42055SOL    HW228173   4.972   7.235   5.377
42056SOL     OW28174   7.406   2.182   2.321
42056SOL    HW128175   7.498   2.210   2.319
42056SOL    HW228176   7.361   2.249   2.371
42057SOL     OW28177   7.142   7.228  10.873
42057SOL    HW128178   7.118   7.280  10.949
42057SOL    HW228179   7.234   7.250  10.856
42058SOL     OW28180  10.405   0.328   6.069
42058SOL    HW128181  10.496   0.316   6.040
42058SOL    HW228182  10.412   0.341   6.163
42059SOL     OW28183   1.019   5.956   6.647
42059SOL    HW128184   1.068   5.889   6.695
42059SOL    HW228185   1.023   6.033   6.703
42060SOL     OW28186  10.393   4.471  10.407
42060SOL    HW128187  10.366   4.562  10.398
42060SOL    HW228188  10.326   4.422  10.359
42061SOL     OW28189   2.701   9.084   0.083
42061SOL    HW128190   2.749   9.151   0.132
42061SOL    HW228191   2.682   9.016   0.148
42062SOL     OW28192  10.510   5.095   0.014
42062SOL    HW128193  10.438   5.076  -0.046
42062SOL    HW228194  10.585   5.048  -0.023
42063SOL     OW28195   9.529   6.654   7.947
42063SOL    HW128196   9.524   6.717   8.018
42063SOL    HW228197   9.597   6.688   7.889
42064SOL     OW28198   1.537   8.303   9.933
42064SOL    HW128199   1.609   8.292   9.871
42064SOL    HW228200   1.502   8.390   9.914
42065SOL     OW28201   2.889  10.077   3.862
42065SOL    HW128202   2.797  10.089   3.884
42065SOL    HW228203   2.895   9.986   3.832
42066SOL     OW28204  10.206   6.955   6.888
42066SOL    HW128205  10.126   7.000   6.914
42066SOL    HW228206  10.267   7.025   6.865
42067SOL     OW28207   9.391   7.990   0.880
42067SOL    HW128208   9.368   8.060   0.819
42067SOL    HW228209   9.467   8.023   0.927
42068SOL     OW28210   0.072   4.847   2.491
42068SOL    HW128211   0.115   4.878   2.411
42068SOL    HW228212   0.016   4.920   2.518
42069SOL     OW28213   0.891   7.111   8.806
42069SOL    HW128214   0.832   7.104   8.881
42069SOL    HW228215   0.907   7.020   8.780
42070SOL     OW28216   7.265   6.084   6.714
42070SOL    HW128217   7.180   6.044   6.695
42070SOL    HW228218   7.326   6.010   6.719
42071SOL     OW28219   5.503   0.861  10.333
42071SOL    HW128220   5.488   0.772  10.300
42071SOL    HW228221   5.518   0.913  10.254
42072SOL     OW28222   8.948   7.788   0.519
42072SOL    HW128223   8.984   7.859   0.465
42072SOL    HW228224   8.898   7.832   0.587
42073SOL     OW28225   3.057   9.247   9.969
42073SOL    HW128226   2.999   9.322   9.957
42073SOL    HW228227   2.998   9.173   9.981
42074SOL     OW28228   7.347   9.540  10.680
42074SOL    HW128229   7.321   9.464  10.627
42074SOL    HW228230   7.277   9.549  10.745
42075SOL     OW28231   9.189   5.174   2.534
42075SOL    HW128232   9.282   5.165   2.513
42075SOL    HW228233   9.180   5.263   2.566
42076SOL     OW28234   6.644   8.185   5.731
42076SOL    HW128235   6.724   8.217   5.771
42076SOL    HW228236   6.575   8.210   5.792
42077SOL     OW28237   0.840   2.952   9.409
42077SOL    HW128238   0.874   2.999   9.485
42077SOL    HW228239   0.793   2.877   9.446
42078SOL     OW28240   3.161   2.934   2.834
42078SOL    HW128241   3.198   2.868   2.893
42078SOL    HW228242   3.135   2.884   2.756
42079SOL     OW28243   9.234  10.666   2.366
42079SOL    HW128244   9.218  10.572   2.362
42079SOL    HW228245   9.193  10.700   2.286
42080SOL     OW28246   9.031  10.421  10.892
42080SOL    HW128247   9.121  10.400  10.868
42080SOL    HW228248   8.979  10.353  10.850
42081SOL     OW28249   0.206   2.253   0.126
42081SOL    HW128250   0.142   2.325   0.125
42081SOL    HW228251   0.278   2.285   0.180
42082SOL     OW28252   0.723   0.780   2.000
42082SOL    HW128253   0.776   0.850   1.963
42082SOL    HW228254   0.771   0.752   2.078
42083SOL     OW28255  11.045  10.318   5.442
42083SOL    HW128256  11.057  10.238   5.390
42083SOL    HW228257  11.008  10.287   5.524
42084SOL     OW28258  10.775   6.639  10.981
42084SOL    HW128259  10.798   6.558  11.026
42084SOL    HW228260  10.755   6.701  11.051
42085SOL     OW28261  10.970   5.086   1.251
42085SOL    HW128262  10.955   5.140   1.328
42085SOL    HW228263  11.039   5.025   1.277
42086SOL     OW28264   8.765   4.254  10.777
42086SOL    HW128265   8.748   4.176  10.723
42086SOL    HW228266   8.708   4.322  10.740
42087SOL     OW28267   9.047   6.089   7.621
42087SOL    HW128268   8.984   6.117   7.687
42087SOL    HW228269   9.102   6.166   7.605
42088SOL     OW28270   7.549   6.005   7.259
42088SOL    HW128271   7.583   6.057   7.331
42088SOL    HW228272   7.463   6.042   7.241
42089SOL     OW28273   4.784   8.926   4.763
42089SOL    HW128274   4.874   8.919   4.731
42089SOL    HW228275   4.756   9.013   4.736
42090SOL     OW28276  10.605   4.166   9.160
42090SOL    HW128277  10.620   4.079   9.198
42090SOL    HW228278  10.657   4.225   9.214
42091SOL     OW28279   8.557   9.079   2.862
42091SOL    HW128280   8.601   9.161   2.840
42091SOL    HW228281   8.464   9.097   2.848
42092SOL     OW28282   7.507   2.767   6.572
42092SOL    HW128283   7.415   2.754   6.548
42092SOL    HW228284   7.550   2.685   6.547
42093SOL     OW28285   6.151   4.002   9.451
42093SOL    HW128286   6.095   3.941   9.499
42093SOL    HW228287   6.109   4.087   9.461
42094SOL     OW28288  10.303   7.697   9.208
42094SOL    HW128289  10.268   7.782   9.235
42094SOL    HW228290  10.383   7.686   9.259
42095SOL     OW28291   2.502   6.307   9.911
42095SOL    HW128292   2.473   6.316  10.002
42095SOL    HW228293   2.598   6.302   9.916
42096SOL     OW28294   2.992   4.576   6.829
42096SOL    HW128295   2.913   4.547   6.784
42096SOL    HW228296   3.016   4.657   6.785
42097SOL     OW28297  10.629   5.196   7.356
42097SOL    HW128298  10.657   5.212   7.446
42097SOL    HW228299  10.710   5.196   7.305
42098SOL     OW28300   0.720   2.570   0.929
42098SOL    HW128301   0.805   2.613   0.935
42098SOL    HW228302   0.659   2.630   0.971
42099SOL     OW28303  10.263   4.373   5.423
42099SOL    HW128304  10.357   4.378   5.406
42099SOL    HW228305  10.223   4.425   5.353
42100SOL     OW28306   9.914   4.742   1.794
42100SOL    HW128307  10.003   4.736   1.828
42100SOL    HW228308   9.926   4.765   1.701
42101SOL     OW28309   3.973   7.767   9.926
42101SOL    HW128310   3.941   7.779  10.015
42101SOL    HW228311   4.026   7.687   9.930
42102SOL     OW28312   8.472   0.685   9.837
42102SOL    HW128313   8.405   0.682   9.905
42102SOL    HW228314   8.441   0.623   9.770
42103SOL     OW28315  10.005   6.234  10.236
42103SOL    HW128316   9.913   6.252  10.253
42103SOL    HW228317  10.053   6.282  10.303
42104SOL     OW28318   1.529   5.400   5.266
42104SOL    HW128319   1.568   5.315   5.246
42104SOL    HW228320   1.466   5.414   5.195
42105SOL     OW28321   4.308   5.927   7.413
42105SOL    HW128322   4.297   5.905   7.505
42105SOL    HW228323   4.334   5.844   7.371
42106SOL     OW28324   9.795   9.752   6.220
42106SOL    HW128325   9.778   9.665   6.257
42106SOL    HW228326   9.858   9.736   6.150
42107SOL     OW28327   8.694   4.402   1.791
42107SOL    HW128328   8.749   4.329   1.819
42107SOL    HW228329   8.628   4.362   1.734
42108SOL     OW28330   0.485   4.079   7.896
42108SOL    HW128331   0.527   4.160   7.867
42108SOL    HW228332   0.538   4.009   7.856
42109SOL     OW28333   3.483  10.914   6.692
42109SOL    HW128334   3.515  10.879   6.775
42109SOL    HW228335   3.554  10.969   6.660
42110SOL     OW28336   2.969   1.714   6.853
42110SOL    HW128337   2.963   1.754   6.766
42110SOL    HW228338   3.030   1.641   6.840
42111SOL     OW28339   1.095   1.955   2.531
42111SOL    HW128340   1.099   2.021   2.600
42111SOL    HW228341   1.145   1.881   2.566
42112SOL     OW28342   6.354   1.760  10.653
42112SOL    HW128343   6.341   1.848  10.687
42112SOL    HW228344   6.367   1.772  10.559
42113SOL     OW28345  10.428   3.105   0.589
42113SOL    HW128346  10.476   3.070   0.664
42113SOL    HW228347  10.436   3.200   0.598
42114SOL     OW28348   5.904   7.568   9.662
42114SOL    HW128349   5.859   7.579   9.746
42114SOL    HW228350   5.993   7.542   9.685
42115SOL     OW28351   2.451   6.454   8.928
42115SOL    HW128352   2.511   6.438   9.001
42115SOL    HW228353   2.462   6.546   8.907
42116SOL     OW28354   4.284   6.841  10.612
42116SOL    HW128355   4.206   6.874  10.567
42116SOL    HW228356   4.354   6.901  10.586
42117SOL     OW28357   2.760   9.843   1.118
42117SOL    HW128358   2.785   9.778   1.052
42117SOL    HW228359   2.765   9.926   1.072
42118SOL     OW28360   1.463   9.413   6.628
42118SOL    HW128361   1.489   9.485   6.684
42118SOL    HW228362   1.433   9.345   6.688
42119SOL     OW28363   6.414   5.651   9.869
42119SOL    HW128364   6.360   5.632   9.946
42119SOL    HW228365   6.407   5.745   9.857
42120SOL     OW28366   1.289   1.622   8.989
42120SOL    HW128367   1.331   1.572   9.059
42120SOL    HW228368   1.195   1.611   9.004
42121SOL     OW28369  10.518   6.089  10.457
42121SOL    HW128370  10.528   6.088  10.361
42121SOL    HW228371  10.591   6.142  10.488
42122SOL     OW28372   6.086   6.546   9.080
42122SOL    HW128373   6.013   6.582   9.130
42122SOL    HW228374   6.143   6.505   9.145
42123SOL     OW28375   5.650   4.749  10.190
42123SOL    HW128376   5.645   4.793  10.274
42123SOL    HW228377   5.608   4.664  10.204
42124SOL     OW28378   1.537   6.807  10.839
42124SOL    HW128379   1.483   6.802  10.760
42124SOL    HW228380   1.487   6.760  10.905
42125SOL     OW28381   8.966   5.536   9.153
42125SOL    HW128382   8.946   5.447   9.184
42125SOL    HW228383   8.960   5.591   9.231
42126SOL     OW28384   7.539   1.217   9.497
42126SOL    HW128385   7.615   1.178   9.540
42126SOL    HW228386   7.470   1.216   9.563
42127SOL     OW28387   8.389   2.004   4.806
42127SOL    HW128388   8.358   1.928   4.856
42127SOL    HW228389   8.438   1.966   4.733
42128SOL     OW28390   9.122   3.746   6.410
42128SOL    HW128391   9.172   3.774   6.333
42128SOL    HW228392   9.033   3.777   6.394
42129SOL     OW28393   7.597   6.738   6.562
42129SOL    HW128394   7.525   6.784   6.605
42129SOL    HW228395   7.602   6.654   6.607
42130SOL     OW28396   6.887   3.837   6.445
42130SOL    HW128397   6.911   3.807   6.532
42130SOL    HW228398   6.927   3.923   6.438
42131SOL     OW28399  11.021   0.401   8.108
42131SOL    HW128400  11.074   0.322   8.093
42131SOL    HW228401  11.026   0.416   8.202
42132SOL     OW28402   9.559   8.019   1.803
42132SOL    HW128403   9.539   8.014   1.709
42132SOL    HW228404   9.498   7.957   1.843
42133SOL     OW28405   2.152   4.125   2.599
42133SOL    HW128406   2.243   4.104   2.620
42133SOL    HW228407   2.156   4.212   2.561
42134SOL     OW28408   6.687   5.851   9.152
42134SOL    HW128409   6.682   5.935   9.106
42134SOL    HW228410   6.597   5.834   9.181
42135SOL     OW28411   4.511   8.696   3.805
42135SOL    HW128412   4.488   8.738   3.887
42135SOL    HW228413   4.605   8.677   3.813
42136SOL     OW28414   7.362   6.149   7.636
42136SOL    HW128415   7.452   6.139   7.669
42136SOL    HW228416   7.307   6.144   7.714
42137SOL     OW28417   1.779   1.669   3.646
42137SOL    HW128418   1.763   1.761   3.665
42137SOL    HW228419   1.874   1.658   3.655
42138SOL     OW28420   0.511   3.258  10.837
42138SOL    HW128421   0.505   3.350  10.811
42138SOL    HW228422   0.599   3.249  10.875
42139SOL     OW28423  10.828   7.565  10.641
42139SOL    HW128424  10.742   7.538  10.609
42139SOL    HW228425  10.874   7.482  10.656
42140SOL     OW28426   3.019   4.939   1.810
42140SOL    HW128427   2.998   4.860   1.860
42140SOL    HW228428   2.942   4.953   1.755
42141SOL     OW28429   3.336   9.271   7.200
42141SOL    HW128430   3.292   9.275   7.115
42141SOL    HW228431   3.418   9.224   7.183
42142SOL     OW28432   8.018   8.707   1.951
42142SOL    HW128433   7.971   8.754   2.019
42142SOL    HW228434   7.957   8.703   1.878
42143SOL     OW28435   2.467   8.007   9.016
42143SOL    HW128436   2.465   7.960   9.099
42143SOL    HW228437   2.559   8.005   8.989
42144SOL     OW28438   1.940   6.502   0.498
42144SOL    HW128439   2.029   6.471   0.514
42144SOL    HW228440   1.935   6.512   0.403
42145SOL     OW28441   2.812   6.676   0.370
42145SOL    HW128442   2.809   6.689   0.275
42145SOL    HW228443   2.793   6.762   0.407
42146SOL     OW28444   8.251   7.609   2.449
42146SOL    HW128445   8.205   7.689   2.472
42146SOL    HW228446   8.199   7.539   2.488
42147SOL     OW28447  10.841   4.743   2.368
42147SOL    HW128448  10.896   4.808   2.325
42147SOL    HW228449  10.898   4.667   2.379
42148SOL     OW28450   0.196   3.454   9.657
42148SOL    HW128451   0.259   3.422   9.722
42148SOL    HW228452   0.158   3.374   9.620
42149SOL     OW28453   8.965   1.554   5.584
42149SOL    HW128454   8.901   1.623   5.598
42149SOL    HW228455   8.957   1.497   5.660
42150SOL     OW28456   0.672   2.813   9.786
42150SOL    HW128457   0.646   2.772   9.868
42150SOL    HW228458   0.753   2.860   9.807
42151SOL     OW28459   8.359   3.558   1.070
42151SOL    HW128460   8.321   3.517   0.992
42151SOL    HW228461   8.366   3.651   1.048
42152SOL     OW28462   8.973  10.754   7.678
42152SOL    HW128463   8.951  10.665   7.706
42152SOL    HW228464   8.910  10.810   7.723
42153SOL     OW28465  10.590   7.292   6.592
42153SOL    HW128466  10.592   7.196   6.601
42153SOL    HW228467  10.512   7.319   6.639
42154SOL     OW28468   0.815   8.767   0.749
42154SOL    HW128469   0.780   8.783   0.836
42154SOL    HW228470   0.765   8.825   0.692
42155SOL     OW28471   0.420   5.961   7.361
42155SOL    HW128472   0.411   5.877   7.315
42155SOL    HW228473   0.457   6.020   7.295
42156SOL     OW28474   2.955   6.890   6.455
42156SOL    HW128475   2.894   6.859   6.522
42156SOL    HW228476   2.951   6.823   6.386
42157SOL     OW28477   8.280   5.090   8.749
42157SOL    HW128478   8.356   5.073   8.804
42157SOL    HW228479   8.295   5.178   8.714
42158SOL     OW28480   6.396   7.392   7.551
42158SOL    HW128481   6.435   7.427   7.631
42158SOL    HW228482   6.449   7.315   7.529
42159SOL     OW28483   9.481   6.628   6.339
42159SOL    HW128484   9.468   6.538   6.370
42159SOL    HW228485   9.437   6.682   6.404
42160SOL     OW28486   2.738   8.313   8.447
42160SOL    HW128487   2.822   8.359   8.438
42160SOL    HW228488   2.763   8.221   8.461
42161SOL     OW28489   3.052   3.394   7.574
42161SOL    HW128490   3.101   3.472   7.599
42161SOL    HW228491   3.075   3.328   7.640
42162SOL     OW28492   8.143   4.473   1.834
42162SOL    HW128493   8.102   4.386   1.838
42162SOL    HW228494   8.193   4.472   1.752
42163SOL     OW28495   9.949   8.126   9.846
42163SOL    HW128496  10.005   8.184   9.795
42163SOL    HW228497   9.869   8.176   9.861
42164SOL     OW28498   0.326   6.052   3.065
42164SOL    HW128499   0.392   6.091   3.122
42164SOL    HW228500   0.376   6.002   3.000
42165SOL     OW28501   9.312   6.720   7.734
42165SOL    HW128502   9.318   6.633   7.774
42165SOL    HW228503   9.370   6.715   7.658
42166SOL     OW28504   8.537   2.287   2.653
42166SOL    HW128505   8.470   2.333   2.603
42166SOL    HW228506   8.619   2.311   2.610
42167SOL     OW28507   0.046   9.270   9.795
42167SOL    HW128508   0.104   9.333   9.753
42167SOL    HW228509   0.023   9.208   9.725
42168SOL     OW28510  10.064   2.281   7.022
42168SOL    HW128511  10.150   2.244   7.042
42168SOL    HW228512  10.050   2.348   7.089
42169SOL     OW28513   1.899   0.121   6.913
42169SOL    HW128514   1.834   0.182   6.947
42169SOL    HW228515   1.861   0.034   6.928
42170SOL     OW28516   1.069   6.413  10.008
42170SOL    HW128517   1.001   6.479   9.996
42170SOL    HW228518   1.148   6.463  10.026
42171SOL     OW28519   1.467   9.782   1.063
42171SOL    HW128520   1.487   9.711   1.002
42171SOL    HW228521   1.546   9.790   1.116
42172SOL     OW28522   6.458   0.504  10.454
42172SOL    HW128523   6.505   0.501  10.370
42172SOL    HW228524   6.525   0.527  10.518
42173SOL     OW28525  11.057   2.009   8.679
42173SOL    HW128526  11.053   2.103   8.661
42173SOL    HW228527  10.966   1.979   8.673
42174SOL     OW28528  10.418   7.490   0.763
42174SOL    HW128529  10.450   7.419   0.819
42174SOL    HW228530  10.430   7.457   0.674
42175SOL     OW28531   1.168  10.221   1.011
42175SOL    HW128532   1.220  10.214   0.930
42175SOL    HW228533   1.203  10.152   1.068
42176SOL     OW28534   9.390   5.808   0.513
42176SOL    HW128535   9.311   5.854   0.485
42176SOL    HW228536   9.384   5.722   0.471
42177SOL     OW28537  10.165   3.038   2.574
42177SOL    HW128538  10.165   3.031   2.478
42177SOL    HW228539  10.140   2.950   2.603
42178SOL     OW28540   0.450   4.701   9.130
42178SOL    HW128541   0.485   4.779   9.172
42178SOL    HW228542   0.525   4.642   9.124
42179SOL     OW28543   0.313   4.082   0.366
42179SOL    HW128544   0.271   4.096   0.451
42179SOL    HW228545   0.382   4.018   0.383
42180SOL     OW28546   3.244  10.034   9.595
42180SOL    HW128547   3.269  10.094   9.665
42180SOL    HW228548   3.251  10.086   9.515
42181SOL     OW28549  10.475   3.670   1.710
42181SOL    HW128550  10.501   3.578   1.703
42181SOL    HW228551  10.448   3.693   1.621
42182SOL     OW28552   6.190   6.810   1.194
42182SOL    HW128553   6.212   6.901   1.174
42182SOL    HW228554   6.132   6.815   1.269
42183SOL     OW28555   1.236   6.180   6.160
42183SOL    HW128556   1.221   6.220   6.245
42183SOL    HW228557   1.183   6.232   6.099
42184SOL     OW28558   4.467   4.062   1.681
42184SOL    HW128559   4.446   4.075   1.773
42184SOL    HW228560   4.491   4.149   1.649
42185SOL     OW28561  10.494   5.406   7.592
42185SOL    HW128562  10.516   5.408   7.499
42185SOL    HW228563  10.496   5.498   7.619
42186SOL     OW28564   5.221  10.622   9.899
42186SOL    HW128565   5.267  10.579   9.827
42186SOL    HW228566   5.131  10.632   9.867
42187SOL     OW28567   1.604   8.951   9.366
42187SOL    HW128568   1.631   8.883   9.428
42187SOL    HW228569   1.534   8.999   9.410
42188SOL     OW28570   5.787   5.544   0.266
42188SOL    HW128571   5.811   5.462   0.309
42188SOL    HW228572   5.693   5.536   0.250
42189SOL     OW28573   8.407   5.574   7.093
42189SOL    HW128574   8.319   5.541   7.110
42189SOL    HW228575   8.401   5.668   7.106
42190SOL     OW28576   4.002   1.162   4.401
42190SOL    HW128577   3.955   1.149   4.318
42190SOL    HW228578   4.090   1.190   4.374
42191SOL     OW28579  11.007   5.192   6.136
42191SOL    HW128580  11.004   5.152   6.223
42191SOL    HW228581  11.069   5.138   6.087
42192SOL     OW28582   3.616   6.331   9.586
42192SOL    HW128583   3.522   6.345   9.581
42192SOL    HW228584   3.627   6.263   9.652
42193SOL     OW28585   7.753   8.252   8.529
42193SOL    HW128586   7.678   8.253   8.589
42193SOL    HW228587   7.825   8.288   8.580
42194SOL     OW28588   1.983   5.254   8.156
42194SOL    HW128589   1.928   5.179   8.131
42194SOL    HW228590   1.997   5.243   8.250
42195SOL     OW28591   9.578   7.122   5.169
42195SOL    HW128592   9.577   7.109   5.074
42195SOL    HW228593   9.590   7.034   5.205
42196SOL     OW28594   1.703   2.248   0.602
42196SOL    HW128595   1.726   2.260   0.510
42196SOL    HW228596   1.633   2.311   0.618
42197SOL     OW28597  10.657   9.173   9.857
42197SOL    HW128598  10.615   9.091   9.831
42197SOL    HW228599  10.632   9.235   9.788
42198SOL     OW28600   0.118   2.037   2.333
42198SOL    HW128601   0.069   2.095   2.391
42198SOL    HW228602   0.065   2.034   2.253
42199SOL     OW28603  10.480   7.570   1.725
42199SOL    HW128604  10.518   7.597   1.808
42199SOL    HW228605  10.391   7.543   1.747
42200SOL     OW28606  11.094   5.929   9.415
42200SOL    HW128607  11.051   5.867   9.355
42200SOL    HW228608  11.182   5.941   9.378
42201SOL     OW28609   3.614   8.028   0.367
42201SOL    HW128610   3.706   8.005   0.356
42201SOL    HW228611   3.596   8.088   0.295
42202SOL     OW28612   9.497   9.717   3.734
42202SOL    HW128613   9.588   9.740   3.753
42202SOL    HW228614   9.485   9.631   3.774
42203SOL     OW28615  10.328   9.934   1.621
42203SOL    HW128616  10.294   9.920   1.709
42203SOL    HW228617  10.282   9.869   1.567
42204SOL     OW28618   0.092   9.826   2.560
42204SOL    HW128619   0.161   9.855   2.619
42204SOL    HW228620   0.128   9.839   2.472
42205SOL     OW28621   6.627   7.988   6.783
42205SOL    HW128622   6.679   7.908   6.791
42205SOL    HW228623   6.584   7.979   6.698
42206SOL     OW28624   8.245   1.734   1.449
42206SOL    HW128625   8.293   1.697   1.523
42206SOL    HW228626   8.161   1.689   1.450
42207SOL     OW28627   2.565   7.326   8.484
42207SOL    HW128628   2.489   7.272   8.462
42207SOL    HW228629   2.598   7.356   8.399
42208SOL     OW28630   0.902  10.313   5.252
42208SOL    HW128631   0.921  10.297   5.344
42208SOL    HW228632   0.817  10.357   5.252
42209SOL     OW28633  11.062   3.230   1.712
42209SOL    HW128634  11.080   3.262   1.623
42209SOL    HW228635  11.094   3.299   1.769
42210SOL     OW28636  10.140   2.290   2.594
42210SOL    HW128637  10.213   2.235   2.564
42210SOL    HW228638  10.112   2.337   2.515
42211SOL     OW28639   0.487   4.518   2.168
42211SOL    HW128640   0.580   4.543   2.167
42211SOL    HW228641   0.445   4.584   2.223
42212SOL     OW28642   0.471   6.256  10.127
42212SOL    HW128643   0.499   6.185  10.185
42212SOL    HW228644   0.550   6.309  10.114
42213SOL     OW28645   9.023   8.565   3.558
42213SOL    HW128646   9.117   8.564   3.574
42213SOL    HW228647   9.015   8.568   3.462
42214SOL     OW28648   6.321   8.151   6.697
42214SOL    HW128649   6.354   8.149   6.787
42214SOL    HW228650   6.279   8.066   6.685
42215SOL     OW28651   9.391   0.942   9.667
42215SOL    HW128652   9.319   0.881   9.684
42215SOL    HW228653   9.436   0.905   9.591
42216SOL     OW28654   9.702   0.872  10.635
42216SOL    HW128655   9.659   0.916  10.561
42216SOL    HW228656   9.671   0.781  10.630
42217SOL     OW28657   2.410   3.975   4.384
42217SOL    HW128658   2.439   3.889   4.353
42217SOL    HW228659   2.318   3.962   4.405
42218SOL     OW28660   1.179   3.477   3.642
42218SOL    HW128661   1.164   3.536   3.716
42218SOL    HW228662   1.110   3.411   3.650
42219SOL     OW28663   9.842   2.204   3.295
42219SOL    HW128664   9.836   2.219   3.389
42219SOL    HW228665   9.852   2.291   3.256
42220SOL     OW28666   0.170  10.101   3.807
42220SOL    HW128667   0.159  10.035   3.875
42220SOL    HW228668   0.107  10.076   3.739
42221SOL     OW28669   2.896   5.405   2.619
42221SOL    HW128670   2.982   5.436   2.647
42221SOL    HW228671   2.836   5.473   2.648
42222SOL     OW28672  10.718   8.284   7.240
42222SOL    HW128673  10.695   8.320   7.325
42222SOL    HW228674  10.712   8.189   7.251
42223SOL     OW28675   7.332   0.890  10.545
42223SOL    HW128676   7.388   0.921  10.473
42223SOL    HW228677   7.252   0.942  10.538
42224SOL     OW28678   7.661   4.676   2.200
42224SOL    HW128679   7.578   4.641   2.232
42224SOL    HW228680   7.721   4.666   2.273
42225SOL     OW28681   1.490   9.866  10.872
42225SOL    HW128682   1.433   9.804  10.917
42225SOL    HW228683   1.566   9.875  10.929
42226SOL     OW28684   2.497   9.197   8.332
42226SOL    HW128685   2.504   9.228   8.241
42226SOL    HW228686   2.433   9.126   8.328
42227SOL     OW28687   0.938   9.511   8.412
42227SOL    HW128688   0.864   9.538   8.467
42227SOL    HW228689   1.006   9.485   8.474
42228SOL     OW28690   9.818   2.467   3.256
42228SOL    HW128691   9.827   2.561   3.266
42228SOL    HW228692   9.726   2.454   3.234
42229SOL     OW28693   3.345   6.854   0.984
42229SOL    HW128694   3.254   6.875   1.004
42229SOL    HW228695   3.375   6.803   1.059
42230SOL     OW28696   7.579  10.307   0.304
42230SOL    HW128697   7.492  10.267   0.307
42230SOL    HW228698   7.639  10.234   0.319
42231SOL     OW28699   5.785   2.383   2.347
42231SOL    HW128700   5.692   2.394   2.366
42231SOL    HW228701   5.820   2.336   2.422
42232SOL     OW28702   1.230   2.360   3.839
42232SOL    HW128703   1.268   2.274   3.860
42232SOL    HW228704   1.202   2.352   3.748
42233SOL     OW28705  10.616  10.001  10.157
42233SOL    HW128706  10.555  10.020  10.228
42233SOL    HW228707  10.570   9.937  10.102
42234SOL     OW28708   9.465   0.440   5.266
42234SOL    HW128709   9.537   0.493   5.233
42234SOL    HW228710   9.476   0.355   5.223
42235SOL     OW28711   2.635   9.325   3.164
42235SOL    HW128712   2.613   9.414   3.136
42235SOL    HW228713   2.730   9.319   3.154
42236SOL     OW28714   7.054  10.000   8.314
42236SOL    HW128715   7.146  10.008   8.340
42236SOL    HW228716   7.046   9.909   8.285
42237SOL     OW28717  11.015   0.281   3.234
42237SOL    HW128718  10.952   0.279   3.162
42237SOL    HW228719  11.060   0.196   3.228
42238SOL     OW28720   3.042   4.082   9.824
42238SOL    HW128721   3.040   4.059   9.731
42238SOL    HW228722   3.106   4.153   9.830
42239SOL     OW28723   7.888   2.854   9.524
42239SOL    HW128724   7.892   2.938   9.570
42239SOL    HW228725   7.817   2.806   9.567
42240SOL     OW28726   5.309   2.089   2.406
42240SOL    HW128727   5.262   2.171   2.418
42240SOL    HW228728   5.246   2.031   2.362
42241SOL     OW28729   8.220   7.339   1.811
42241SOL    HW128730   8.206   7.247   1.834
42241SOL    HW228731   8.188   7.388   1.887
42242SOL     OW28732   0.748   1.109  10.095
42242SOL    HW128733   0.827   1.155  10.123
42242SOL    HW228734   0.684   1.178  10.079
42243SOL     OW28735   6.239   0.349   3.732
42243SOL    HW128736   6.147   0.328   3.744
42243SOL    HW228737   6.281   0.319   3.812
42244SOL     OW28738   0.059   1.476   2.909
42244SOL    HW128739   0.129   1.518   2.959
42244SOL    HW228740   0.028   1.543   2.849
42245SOL     OW28741   0.127   7.147   8.111
42245SOL    HW128742   0.065   7.161   8.182
42245SOL    HW228743   0.134   7.232   8.068
42246SOL     OW28744   1.004   5.712   0.028
42246SOL    HW128745   0.991   5.798   0.067
42246SOL    HW228746   1.055   5.729  -0.051
42247SOL     OW28747  10.477  10.824   6.428
42247SOL    HW128748  10.549  10.850   6.486
42247SOL    HW228749  10.441  10.907   6.396
42248SOL     OW28750   5.492   9.804   6.064
42248SOL    HW128751   5.583   9.824   6.087
42248SOL    HW228752   5.485   9.829   5.972
42249SOL     OW28753   4.984   3.128   9.987
42249SOL    HW128754   5.013   3.216  10.008
42249SOL    HW228755   4.891   3.137   9.968
42250SOL     OW28756   2.896   7.485   9.396
42250SOL    HW128757   2.840   7.413   9.365
42250SOL    HW228758   2.933   7.522   9.316
42251SOL     OW28759  10.753   5.334   2.574
42251SOL    HW128760  10.704   5.314   2.494
42251SOL    HW228761  10.687   5.365   2.636
42252SOL     OW28762  10.131   3.466   5.584
42252SOL    HW128763  10.084   3.393   5.542
42252SOL    HW228764  10.085   3.481   5.666
42253SOL     OW28765   7.929   5.203   2.690
42253SOL    HW128766   7.993   5.222   2.758
42253SOL    HW228767   7.846   5.195   2.737
42254SOL     OW28768   6.537   6.776   9.331
42254SOL    HW128769   6.607   6.806   9.272
42254SOL    HW228770   6.477   6.728   9.274
42255SOL     OW28771   0.765   8.048   5.744
42255SOL    HW128772   0.822   8.040   5.667
42255SOL    HW228773   0.825   8.057   5.818
42256SOL     OW28774   0.131   9.534   1.500
42256SOL    HW128775   0.041   9.509   1.521
42256SOL    HW228776   0.166   9.569   1.582
42257SOL     OW28777   3.737   8.090   5.519
42257SOL    HW128778   3.706   8.172   5.481
42257SOL    HW228779   3.659   8.049   5.557
42258SOL     OW28780   4.567   0.807  10.358
42258SOL    HW128781   4.594   0.725  10.316
42258SOL    HW228782   4.576   0.872  10.289
42259SOL     OW28783   3.656   0.211   1.110
42259SOL    HW128784   3.646   0.297   1.069
42259SOL    HW228785   3.748   0.188   1.095
42260SOL     OW28786   8.326   9.863  10.479
42260SOL    HW128787   8.262   9.792  10.488
42260SOL    HW228788   8.286   9.923  10.416
42261SOL     OW28789   4.425   7.950  10.590
42261SOL    HW128790   4.512   7.988  10.578
42261SOL    HW228791   4.377   8.015  10.641
42262SOL     OW28792   2.174   0.536   8.497
42262SOL    HW128793   2.240   0.553   8.430
42262SOL    HW228794   2.221   0.489   8.566
42263SOL     OW28795   7.334   1.385   4.544
42263SOL    HW128796   7.246   1.372   4.580
42263SOL    HW228797   7.383   1.307   4.572
42264SOL     OW28798   3.750   0.424   4.309
42264SOL    HW128799   3.779   0.417   4.400
42264SOL    HW228800   3.701   0.506   4.305
42265SOL     OW28801   5.106  10.480  10.846
42265SOL    HW128802   5.138  10.408  10.792
42265SOL    HW228803   5.021  10.450  10.878
42266SOL     OW28804   3.369   8.179  11.024
42266SOL    HW128805   3.436   8.243  11.001
42266SOL    HW228806   3.329   8.213  11.104
42267SOL     OW28807  10.249  10.547   2.603
42267SOL    HW128808  10.328  10.519   2.650
42267SOL    HW228809  10.279  10.562   2.513
42268SOL     OW28810   5.863  10.982   1.193
42268SOL    HW128811   5.907  10.989   1.277
42268SOL    HW228812   5.770  10.986   1.214
42269SOL     OW28813   4.930   7.277   2.761
42269SOL    HW128814   4.861   7.237   2.814
42269SOL    HW228815   4.924   7.370   2.779
42270SOL     OW28816   0.830   3.944   0.923
42270SOL    HW128817   0.762   4.011   0.929
42270SOL    HW228818   0.782   3.861   0.928
42271SOL     OW28819   1.580   9.205   2.981
42271SOL    HW128820   1.671   9.176   2.992
42271SOL    HW228821   1.539   9.135   2.930
42272SOL     OW28822   0.713   6.883   4.147
42272SOL    HW128823   0.659   6.917   4.218
42272SOL    HW228824   0.768   6.816   4.188
42273SOL     OW28825   2.136   6.990  10.689
42273SOL    HW128826   2.146   7.017  10.598
42273SOL    HW228827   2.070   7.049  10.725
42274SOL     OW28828   8.454   9.656   8.856
42274SOL    HW128829   8.369   9.644   8.813
42274SOL    HW228830   8.503   9.713   8.796
42275SOL     OW28831   2.804   1.125   9.212
42275SOL    HW128832   2.725   1.083   9.245
42275SOL    HW228833   2.833   1.183   9.282
42276SOL     OW28834  10.715  10.048   0.600
42276SOL    HW128835  10.693   9.955   0.595
42276SOL    HW228836  10.711  10.078   0.509
42277SOL     OW28837   8.800   2.202   2.171
42277SOL    HW128838   8.879   2.188   2.119
42277SOL    HW228839   8.816   2.284   2.216
42278SOL     OW28840   3.018   7.242   7.963
42278SOL    HW128841   3.065   7.231   7.880
42278SOL    HW228842   3.056   7.175   8.021
42279SOL     OW28843   3.485   9.101   2.195
42279SOL    HW128844   3.551   9.084   2.127
42279SOL    HW228845   3.428   9.024   2.192
42280SOL     OW28846   0.760   1.095   3.110
42280SOL    HW128847   0.725   1.081   3.022
42280SOL    HW228848   0.834   1.034   3.116
42281SOL     OW28849   3.549   0.740  10.449
42281SOL    HW128850   3.583   0.678  10.513
42281SOL    HW228851   3.476   0.694  10.408
42282SOL     OW28852   3.282   0.930   9.471
42282SOL    HW128853   3.190   0.913   9.490
42282SOL    HW228854   3.304   0.868   9.400
42283SOL     OW28855   4.060   9.628   7.866
42283SOL    HW128856   4.094   9.710   7.831
42283SOL    HW228857   3.965   9.637   7.860
42284SOL     OW28858   7.545   0.855   9.533
42284SOL    HW128859   7.455   0.842   9.562
42284SOL    HW228860   7.582   0.917   9.595
42285SOL     OW28861   4.700   7.531   8.203
42285SOL    HW128862   4.787   7.507   8.171
42285SOL    HW228863   4.656   7.447   8.217
42286SOL     OW28864   7.591   5.420  10.672
42286SOL    HW128865   7.579   5.433  10.766
42286SOL    HW228866   7.534   5.346  10.650
42287SOL     OW28867   1.983   7.554   7.274
42287SOL    HW128868   1.998   7.642   7.241
42287SOL    HW228869   2.071   7.517   7.283
42288SOL     OW28870  10.948   7.551   3.612
42288SOL    HW128871  11.036   7.587   3.603
42288SOL    HW228872  10.958   7.477   3.672
42289SOL     OW28873   8.140  10.475   3.660
42289SOL    HW128874   8.112  10.418   3.589
42289SOL    HW228875   8.068  10.474   3.722
42290SOL     OW28876   8.697   9.717   4.320
42290SOL    HW128877   8.660   9.722   4.408
42290SOL    HW228878   8.691   9.806   4.285
42291SOL     OW28879   1.853   2.399   9.298
42291SOL    HW128880   1.844   2.435   9.386
42291SOL    HW228881   1.809   2.314   9.302
42292SOL     OW28882   3.002   7.467   8.187
42292SOL    HW128883   3.087   7.499   8.216
42292SOL    HW228884   2.979   7.399   8.250
42293SOL     OW28885   3.088   1.602   5.503
42293SOL    HW128886   3.181   1.594   5.482
42293SOL    HW228887   3.044   1.596   5.418
42294SOL     OW28888   2.936   5.849  10.926
42294SOL    HW128889   2.880   5.807  10.992
42294SOL    HW228890   2.926   5.943  10.941
42295SOL     OW28891   3.410  10.507   7.416
42295SOL    HW128892   3.391  10.560   7.493
42295SOL    HW228893   3.502  10.482   7.426
42296SOL     OW28894   3.146   3.446   1.448
42296SOL    HW128895   3.232   3.473   1.479
42296SOL    HW228896   3.087   3.516   1.475
42297SOL     OW28897   0.750   8.606   8.754
42297SOL    HW128898   0.660   8.630   8.775
42297SOL    HW228899   0.757   8.619   8.659
42298SOL     OW28900   0.503   0.534   8.125
42298SOL    HW128901   0.532   0.558   8.213
42298SOL    HW228902   0.418   0.492   8.138
42299SOL     OW28903   4.200   2.921   5.700
42299SOL    HW128904   4.109   2.897   5.683
42299SOL    HW228905   4.251   2.864   5.641
42300SOL     OW28906   2.159   0.233  10.148
42300SOL    HW128907   2.250   0.218  10.123
42300SOL    HW228908   2.108   0.182  10.085
42301SOL     OW28909   6.768   1.401   8.171
42301SOL    HW128910   6.790   1.467   8.237
42301SOL    HW228911   6.847   1.348   8.163
42302SOL     OW28912   2.631   0.178   1.145
42302SOL    HW128913   2.543   0.204   1.171
42302SOL    HW228914   2.630   0.183   1.049
42303SOL     OW28915   4.425   7.227  10.000
42303SOL    HW128916   4.371   7.237   9.921
42303SOL    HW228917   4.486   7.301   9.997
42304SOL     OW28918   1.083   0.193   1.058
42304SOL    HW128919   1.058   0.109   1.018
42304SOL    HW228920   1.086   0.175   1.152
42305SOL     OW28921   7.451   9.487   4.250
42305SOL    HW128922   7.374   9.441   4.284
42305SOL    HW228923   7.479   9.434   4.175
42306SOL     OW28924   6.787  10.246  10.563
42306SOL    HW128925   6.718  10.195  10.605
42306SOL    HW228926   6.867  10.195  10.578
42307SOL     OW28927   3.228  10.367   4.067
42307SOL    HW128928   3.146  10.323   4.045
42307SOL    HW228929   3.246  10.340   4.157
42308SOL     OW28930   1.206  11.039   4.516
42308SOL    HW128931   1.207  11.099   4.590
42308SOL    HW228932   1.296  11.006   4.510
42309SOL     OW28933  10.872  10.523   2.747
42309SOL    HW128934  10.793  10.567   2.779
42309SOL    HW228935  10.840  10.444   2.704
42310SOL     OW28936   0.080   8.241  10.219
42310SOL    HW128937   0.131   8.252  10.299
42310SOL    HW228938  -0.011   8.248  10.247
42311SOL     OW28939   1.724  10.037   4.563
42311SOL    HW128940   1.652  10.097   4.546
42311SOL    HW228941   1.797  10.072   4.512
42312SOL     OW28942   1.983   9.005   3.312
42312SOL    HW128943   2.032   8.994   3.394
42312SOL    HW228944   2.019   8.937   3.254
42313SOL     OW28945  10.861   1.507  10.609
42313SOL    HW128946  10.916   1.508  10.687
42313SOL    HW228947  10.772   1.515  10.641
42314SOL     OW28948  11.053   8.224   7.826
42314SOL    HW128949  11.111   8.272   7.767
42314SOL    HW228950  11.035   8.285   7.897
42315SOL     OW28951   2.858   0.629   2.478
42315SOL    HW128952   2.936   0.574   2.483
42315SOL    HW228953   2.854   0.655   2.386
42316SOL     OW28954   0.386   7.070   9.718
42316SOL    HW128955   0.301   7.060   9.761
42316SOL    HW228956   0.398   7.164   9.710
42317SOL     OW28957   8.052   6.202   4.787
42317SOL    HW128958   7.998   6.279   4.803
42317SOL    HW228959   8.058   6.159   4.872
42318SOL     OW28960   9.133  10.991   3.295
42318SOL    HW128961   9.086  11.066   3.258
42318SOL    HW228962   9.112  10.918   3.236
42319SOL     OW28963   1.704   1.411   4.720
42319SOL    HW128964   1.660   1.419   4.635
42319SOL    HW228965   1.639   1.370   4.777
42320SOL     OW28966  10.231   7.556   6.994
42320SOL    HW128967  10.222   7.651   6.992
42320SOL    HW228968  10.174   7.525   6.923
42321SOL     OW28969   0.983   0.105   7.066
42321SOL    HW128970   1.001   0.184   7.117
42321SOL    HW228971   0.941   0.137   6.986
42322SOL     OW28972  10.774   0.119  10.084
42322SOL    HW128973  10.778   0.133  10.178
42322SOL    HW228974  10.861   0.143  10.052
42323SOL     OW28975   5.103   1.539   1.504
42323SOL    HW128976   5.072   1.604   1.441
42323SOL    HW228977   5.032   1.532   1.568
42324SOL     OW28978   5.401   0.536   5.204
42324SOL    HW128979   5.444   0.466   5.154
42324SOL    HW228980   5.395   0.609   5.143
42325SOL     OW28981   2.054   8.334   3.541
42325SOL    HW128982   1.997   8.409   3.555
42325SOL    HW228983   2.003   8.276   3.484
42326SOL     OW28984  10.051   8.634   3.134
42326SOL    HW128985   9.979   8.622   3.072
42326SOL    HW228986  10.050   8.727   3.155
42327SOL     OW28987   5.124   1.482   1.886
42327SOL    HW128988   5.056   1.525   1.938
42327SOL    HW228989   5.196   1.545   1.883
42328SOL     OW28990   7.644   2.291   3.519
42328SOL    HW128991   7.691   2.374   3.519
42328SOL    HW228992   7.595   2.291   3.437
42329SOL     OW28993   2.739   6.256  10.408
42329SOL    HW128994   2.803   6.186  10.419
42329SOL    HW228995   2.702   6.269  10.495
42330SOL     OW28996   1.412  10.215   3.472
42330SOL    HW128997   1.370  10.300   3.463
42330SOL    HW228998   1.487  10.230   3.529
42331SOL     OW28999  10.174  10.857   9.010
42331SOL    HW129000  10.107  10.808   9.058
42331SOL    HW229001  10.182  10.811   8.926
42332SOL     OW29002   8.644   7.681   8.959
42332SOL    HW129003   8.718   7.629   8.927
42332SOL    HW229004   8.668   7.771   8.939
42333SOL     OW29005   1.344   9.112   3.420
42333SOL    HW129006   1.288   9.035   3.431
42333SOL    HW229007   1.286   9.186   3.438
42334SOL     OW29008   8.072   9.940   0.139
42334SOL    HW129009   8.083  10.028   0.103
42334SOL    HW229010   8.002   9.901   0.087
42335SOL     OW29011   7.820   7.636   2.713
42335SOL    HW129012   7.789   7.620   2.802
42335SOL    HW229013   7.810   7.730   2.700
42336SOL     OW29014   2.192   7.967  10.895
42336SOL    HW129015   2.178   8.045  10.842
42336SOL    HW229016   2.283   7.943  10.878
42337SOL     OW29017   4.693   8.870   9.361
42337SOL    HW129018   4.623   8.877   9.425
42337SOL    HW229019   4.771   8.901   9.407
42338SOL     OW29020   8.909   0.217   0.412
42338SOL    HW129021   8.889   0.126   0.433
42338SOL    HW229022   8.855   0.268   0.472
42339SOL     OW29023  10.105   0.627   4.476
42339SOL    HW129024  10.195   0.605   4.500
42339SOL    HW229025  10.077   0.554   4.420
42340SOL     OW29026   3.531   1.979   6.959
42340SOL    HW129027   3.572   1.892   6.965
42340SOL    HW229028   3.598   2.034   6.917
42341SOL     OW29029   2.157   1.726   2.617
42341SOL    HW129030   2.193   1.796   2.671
42341SOL    HW229031   2.064   1.725   2.638
42342SOL     OW29032   2.928   8.723   3.468
42342SOL    HW129033   2.894   8.737   3.556
42342SOL    HW229034   2.854   8.687   3.419
42343SOL     OW29035   4.887   2.772   1.323
42343SOL    HW129036   4.866   2.846   1.266
42343SOL    HW229037   4.802   2.734   1.346
42344SOL     OW29038   2.840   9.966   2.862
42344SOL    HW129039   2.798  10.050   2.847
42344SOL    HW229040   2.801   9.934   2.943
42345SOL     OW29041   8.136   8.827   4.678
42345SOL    HW129042   8.160   8.917   4.700
42345SOL    HW229043   8.040   8.828   4.675
42346SOL     OW29044  10.106   2.404  10.812
42346SOL    HW129045  10.168   2.424  10.882
42346SOL    HW229046  10.049   2.337  10.849
42347SOL     OW29047  10.743   2.196   1.874
42347SOL    HW129048  10.649   2.204   1.888
42347SOL    HW229049  10.782   2.228   1.955
42348SOL     OW29050   1.816   2.076   1.753
42348SOL    HW129051   1.749   2.008   1.763
42348SOL    HW229052   1.809   2.103   1.661
42349SOL     OW29053   4.121  10.866  10.297
42349SOL    HW129054   4.134  10.781  10.255
42349SOL    HW229055   4.110  10.927  10.224
42350SOL     OW29056   8.709   9.320   6.110
42350SOL    HW129057   8.802   9.335   6.125
42350SOL    HW229058   8.667   9.403   6.131
42351SOL     OW29059   5.127   9.138   2.248
42351SOL    HW129060   5.047   9.099   2.213
42351SOL    HW229061   5.197   9.098   2.197
42352SOL     OW29062   9.360   1.006   6.170
42352SOL    HW129063   9.288   1.036   6.115
42352SOL    HW229064   9.405   1.086   6.196
42353SOL     OW29065   1.570   5.649   0.228
42353SOL    HW129066   1.538   5.611   0.310
42353SOL    HW229067   1.655   5.686   0.250
42354SOL     OW29068   8.454   9.437  10.656
42354SOL    HW129069   8.463   9.399  10.568
42354SOL    HW229070   8.543   9.461  10.681
42355SOL     OW29071   9.153   8.700   9.106
42355SOL    HW129072   9.191   8.697   9.018
42355SOL    HW229073   9.217   8.654   9.160
42356SOL     OW29074   2.894   8.629   3.097
42356SOL    HW129075   2.898   8.722   3.076
42356SOL    HW229076   2.963   8.616   3.162
42357SOL     OW29077   1.514   7.233   9.917
42357SOL    HW129078   1.439   7.222   9.974
42357SOL    HW229079   1.482   7.208   9.830
42358SOL     OW29080  10.395  10.106   2.632
42358SOL    HW129081  10.400  10.022   2.678
42358SOL    HW229082  10.301  10.123   2.622
42359SOL     OW29083   8.350  10.120   1.293
42359SOL    HW129084   8.311  10.097   1.377
42359SOL    HW229085   8.316  10.207   1.274
42360SOL     OW29086  10.708   8.343   5.193
42360SOL    HW129087  10.684   8.258   5.230
42360SOL    HW229088  10.629   8.395   5.200
42361SOL     OW29089   5.413  10.075   9.242
42361SOL    HW129090   5.330  10.027   9.246
42361SOL    HW229091   5.396  10.156   9.289
42362SOL     OW29092   0.725  10.042   9.653
42362SOL    HW129093   0.713   9.961   9.704
42362SOL    HW229094   0.802  10.024   9.598
42363SOL     OW29095   1.685   1.935   3.843
42363SOL    HW129096   1.724   1.851   3.867
42363SOL    HW229097   1.614   1.947   3.905
42364SOL     OW29098   8.502   2.123   8.723
42364SOL    HW129099   8.531   2.092   8.809
42364SOL    HW229100   8.429   2.065   8.700
42365SOL     OW29101   0.656   6.992   0.355
42365SOL    HW129102   0.655   7.033   0.441
42365SOL    HW229103   0.650   6.898   0.373
42366SOL     OW29104   8.129   7.436   2.056
42366SOL    HW129105   8.047   7.395   2.084
42366SOL    HW229106   8.111   7.530   2.060
42367SOL     OW29107   3.981   8.376   3.221
42367SOL    HW129108   3.928   8.319   3.277
42367SOL    HW229109   4.032   8.315   3.167
42368SOL     OW29110  10.675   6.174   8.921
42368SOL    HW129111  10.603   6.184   8.982
42368SOL    HW229112  10.658   6.090   8.877
42369SOL     OW29113   9.918   8.221   1.814
42369SOL    HW129114   9.884   8.238   1.902
42369SOL    HW229115   9.942   8.128   1.815
42370SOL     OW29116   1.717   8.897   2.262
42370SOL    HW129117   1.634   8.943   2.251
42370SOL    HW229118   1.718   8.832   2.192
42371SOL     OW29119  10.694   0.140   1.017
42371SOL    HW129120  10.719   0.070   0.955
42371SOL    HW229121  10.599   0.147   1.007
42372SOL     OW29122   9.611   5.293   2.040
42372SOL    HW129123   9.579   5.203   2.036
42372SOL    HW229124   9.597   5.327   1.951
42373SOL     OW29125   7.218   7.879   8.882
42373SOL    HW129126   7.268   7.804   8.848
42373SOL    HW229127   7.174   7.915   8.805
42374SOL     OW29128   5.095  10.750  10.932
42374SOL    HW129129   5.057  10.705  11.007
42374SOL    HW229130   5.114  10.681  10.869
42375SOL     OW29131   4.620   1.069   9.057
42375SOL    HW129132   4.579   1.116   8.984
42375SOL    HW229133   4.643   1.137   9.120
42376SOL     OW29134   6.751   9.345   0.627
42376SOL    HW129135   6.691   9.271   0.616
42376SOL    HW229136   6.767   9.350   0.721
42377SOL     OW29137   6.676   1.856   9.870
42377SOL    HW129138   6.625   1.925   9.911
42377SOL    HW229139   6.767   1.879   9.888
42378SOL     OW29140   0.310   8.275   7.829
42378SOL    HW129141   0.396   8.317   7.824
42378SOL    HW229142   0.266   8.301   7.748
42379SOL     OW29143   0.669   4.199   0.940
42379SOL    HW129144   0.605   4.261   0.975
42379SOL    HW229145   0.754   4.236   0.964
42380SOL     OW29146   5.022   0.434   0.843
42380SOL    HW129147   5.031   0.453   0.749
42380SOL    HW229148   4.929   0.445   0.861
42381SOL     OW29149   8.624   9.219   1.144
42381SOL    HW129150   8.539   9.176   1.130
42381SOL    HW229151   8.618   9.301   1.096
42382SOL     OW29152   9.336   0.462   8.542
42382SOL    HW129153   9.355   0.373   8.572
42382SOL    HW229154   9.265   0.451   8.478
42383SOL     OW29155   9.068   6.223   6.679
42383SOL    HW129156   9.123   6.148   6.655
42383SOL    HW229157   9.001   6.225   6.611
42384SOL     OW29158   8.112   5.624   1.716
42384SOL    HW129159   8.157   5.553   1.762
42384SOL    HW229160   8.140   5.703   1.761
42385SOL     OW29161  10.832   5.633   8.157
42385SOL    HW129162  10.925   5.608   8.159
42385SOL    HW229163  10.785   5.552   8.180
42386SOL     OW29164   4.181   2.676   8.475
42386SOL    HW129165   4.150   2.708   8.559
42386SOL    HW229166   4.135   2.729   8.410
42387SOL     OW29167   0.670   8.547   5.451
42387SOL    HW129168   0.649   8.455   5.470
42387SOL    HW229169   0.670   8.590   5.536
42388SOL     OW29170   6.053  10.550   0.418
42388SOL    HW129171   6.097  10.563   0.333
42388SOL    HW229172   5.969  10.595   0.408
42389SOL     OW29173   8.837   8.045  10.468
42389SOL    HW129174   8.892   7.980  10.423
42389SOL    HW229175   8.799   8.097  10.397
42390SOL     OW29176   4.871   9.407   1.131
42390SOL    HW129177   4.900   9.451   1.210
42390SOL    HW229178   4.870   9.475   1.064
42391SOL     OW29179   9.341   1.169  10.612
42391SOL    HW129180   9.247   1.176  10.626
42391SOL    HW229181   9.367   1.254  10.578
42392SOL     OW29182  10.556   6.284   5.957
42392SOL    HW129183  10.505   6.250   5.883
42392SOL    HW229184  10.645   6.295   5.922
42393SOL     OW29185   6.679   8.568   2.630
42393SOL    HW129186   6.742   8.575   2.558
42393SOL    HW229187   6.732   8.545   2.706
42394SOL     OW29188   0.225   2.172   3.224
42394SOL    HW129189   0.137   2.135   3.230
42394SOL    HW229190   0.252   2.185   3.314
42395SOL     OW29191   4.294  10.891   2.857
42395SOL    HW129192   4.317  10.890   2.764
42395SOL    HW229193   4.290  10.984   2.879
42396SOL     OW29194   1.104   8.353   1.717
42396SOL    HW129195   1.096   8.440   1.755
42396SOL    HW229196   1.015   8.318   1.718
42397SOL     OW29197   0.517   7.867   2.482
42397SOL    HW129198   0.536   7.890   2.573
42397SOL    HW229199   0.442   7.921   2.459
42398SOL     OW29200   9.057   3.730   0.932
42398SOL    HW129201   9.150   3.753   0.938
42398SOL    HW229202   9.019   3.797   0.875
42399SOL     OW29203   7.870   6.348   7.386
42399SOL    HW129204   7.866   6.443   7.384
42399SOL    HW229205   7.785   6.321   7.420
42400SOL     OW29206   8.490   9.559   4.525
42400SOL    HW129207   8.557   9.519   4.580
42400SOL    HW229208   8.409   9.516   4.551
42401SOL     OW29209   1.961  10.254  10.959
42401SOL    HW129210   1.934  10.163  10.976
42401SOL    HW229211   2.056  10.252  10.967
42402SOL     OW29212   6.170   6.681   2.672
42402SOL    HW129213   6.144   6.763   2.712
42402SOL    HW229214   6.112   6.616   2.711
42403SOL     OW29215   1.637   1.440   1.156
42403SOL    HW129216   1.729   1.461   1.140
42403SOL    HW229217   1.604   1.513   1.208
42404SOL     OW29218   3.240   8.078   3.911
42404SOL    HW129219   3.286   8.102   3.991
42404SOL    HW229220   3.309   8.048   3.852
42405SOL     OW29221  10.007  10.597   4.444
42405SOL    HW129222  10.062  10.664   4.403
42405SOL    HW229223   9.918  10.631   4.435
42406SOL     OW29224   9.968   5.228   4.023
42406SOL    HW129225   9.936   5.292   4.086
42406SOL    HW229226  10.019   5.166   4.075
42407SOL     OW29227   3.454   1.720   0.652
42407SOL    HW129228   3.412   1.795   0.694
42407SOL    HW229229   3.393   1.647   0.666
42408SOL     OW29230   7.990   2.269   8.924
42408SOL    HW129231   7.989   2.332   8.995
42408SOL    HW229232   8.054   2.303   8.862
42409SOL     OW29233   3.121   9.946   0.555
42409SOL    HW129234   3.108   9.975   0.464
42409SOL    HW229235   3.033   9.930   0.588
42410SOL     OW29236   3.490   5.751   4.551
42410SOL    HW129237   3.542   5.671   4.560
42410SOL    HW229238   3.431   5.732   4.478
42411SOL     OW29239   2.619   0.368  10.404
42411SOL    HW129240   2.566   0.384  10.482
42411SOL    HW229241   2.709   0.361  10.436
42412SOL     OW29242   8.187   7.889   5.945
42412SOL    HW129243   8.215   7.975   5.914
42412SOL    HW229244   8.209   7.829   5.873
42413SOL     OW29245  10.970   4.478   7.360
42413SOL    HW129246  11.012   4.469   7.274
42413SOL    HW229247  10.982   4.570   7.383
42414SOL     OW29248   4.773   8.292   6.009
42414SOL    HW129249   4.693   8.328   5.971
42414SOL    HW229250   4.772   8.200   5.983
42415SOL     OW29251  10.018   6.422   7.356
42415SOL    HW129252   9.945   6.373   7.394
42415SOL    HW229253  10.091   6.407   7.416
42416SOL     OW29254   2.539   7.915   7.750
42416SOL    HW129255   2.603   7.904   7.679
42416SOL    HW229256   2.468   7.855   7.727
42417SOL     OW29257   8.497  10.045   0.926
42417SOL    HW129258   8.542  10.098   0.991
42417SOL    HW229259   8.484  10.103   0.851
42418SOL     OW29260   7.989   4.137   6.977
42418SOL    HW129261   8.012   4.063   6.920
42418SOL    HW229262   7.958   4.204   6.916
42419SOL     OW29263  10.518   0.637   5.937
42419SOL    HW129264  10.484   0.675   5.856
42419SOL    HW229265  10.468   0.556   5.949
42420SOL     OW29266   4.605   8.399   5.072
42420SOL    HW129267   4.692   8.439   5.073
42420SOL    HW229268   4.589   8.375   5.163
42421SOL     OW29269   7.453   5.438   1.350
42421SOL    HW129270   7.414   5.352   1.368
42421SOL    HW229271   7.489   5.429   1.261
42422SOL     OW29272   6.146   4.206   3.959
42422SOL    HW129273   6.054   4.222   3.936
42422SOL    HW229274   6.174   4.137   3.898
42423SOL     OW29275   4.794   5.604   1.341
42423SOL    HW129276   4.750   5.524   1.311
42423SOL    HW229277   4.844   5.576   1.417
42424SOL     OW29278   9.973   7.677   2.530
42424SOL    HW129279   9.966   7.667   2.435
42424SOL    HW229280   9.954   7.769   2.546
42425SOL     OW29281   9.728  10.891   1.794
42425SOL    HW129282   9.734  10.975   1.748
42425SOL    HW229283   9.817  10.873   1.823
42426SOL     OW29284   5.872   8.700   6.356
42426SOL    HW129285   5.958   8.709   6.396
42426SOL    HW229286   5.820   8.651   6.420
42427SOL     OW29287   1.008   4.613   1.213
42427SOL    HW129288   0.947   4.647   1.147
42427SOL    HW229289   1.085   4.585   1.162
42428SOL     OW29290   9.608   8.910   1.195
42428SOL    HW129291   9.632   9.001   1.180
42428SOL    HW229292   9.690   8.868   1.223
42429SOL     OW29293   2.114   2.574  10.306
42429SOL    HW129294   2.071   2.587  10.390
42429SOL    HW229295   2.174   2.501  10.320
42430SOL     OW29296   9.222   8.875   6.529
42430SOL    HW129297   9.261   8.788   6.517
42430SOL    HW229298   9.197   8.878   6.621
42431SOL     OW29299   6.023   1.795   7.385
42431SOL    HW129300   5.963   1.862   7.418
42431SOL    HW229301   5.966   1.729   7.345
42432SOL     OW29302   2.631   1.311  10.627
42432SOL    HW129303   2.714   1.337  10.666
42432SOL    HW229304   2.652   1.230  10.579
42433SOL     OW29305   0.142   2.111   1.703
42433SOL    HW129306   0.129   2.016   1.711
42433SOL    HW229307   0.102   2.147   1.782
42434SOL     OW29308   3.186   4.369   2.492
42434SOL    HW129309   3.211   4.423   2.566
42434SOL    HW229310   3.107   4.410   2.457
42435SOL     OW29311   9.742   2.340   2.056
42435SOL    HW129312   9.687   2.265   2.032
42435SOL    HW229313   9.702   2.414   2.012
42436SOL     OW29314   8.770   6.568   2.175
42436SOL    HW129315   8.758   6.530   2.262
42436SOL    HW229316   8.681   6.582   2.142
42437SOL     OW29317   9.386   1.068   1.732
42437SOL    HW129318   9.338   1.011   1.672
42437SOL    HW229319   9.318   1.116   1.779
42438SOL     OW29320   8.614   8.792   5.585
42438SOL    HW129321   8.596   8.700   5.566
42438SOL    HW229322   8.668   8.821   5.511
42439SOL     OW29323   2.039   1.941  10.961
42439SOL    HW129324   1.947   1.965  10.955
42439SOL    HW229325   2.055   1.930  11.054
42440SOL     OW29326  11.097   2.031   3.203
42440SOL    HW129327  11.098   1.968   3.131
42440SOL    HW229328  11.004   2.048   3.219
42441SOL     OW29329   4.285   1.932   2.720
42441SOL    HW129330   4.289   2.022   2.688
42441SOL    HW229331   4.336   1.882   2.656
42442SOL     OW29332   8.804   4.927   7.327
42442SOL    HW129333   8.776   5.005   7.279
42442SOL    HW229334   8.770   4.854   7.275
42443SOL     OW29335   7.080   9.231  10.519
42443SOL    HW129336   7.085   9.208  10.426
42443SOL    HW229337   7.141   9.170  10.561
42444SOL     OW29338   9.110   8.430   3.981
42444SOL    HW129339   9.130   8.523   3.986
42444SOL    HW229340   9.029   8.425   3.930
42445SOL     OW29341  10.038   4.935   6.278
42445SOL    HW129342  10.055   4.984   6.358
42445SOL    HW229343   9.963   4.979   6.238
42446SOL     OW29344  10.197   2.425   4.711
42446SOL    HW129345  10.133   2.478   4.663
42446SOL    HW229346  10.194   2.457   4.801
42447SOL     OW29347   4.931   6.204   2.481
42447SOL    HW129348   4.866   6.156   2.532
42447SOL    HW229349   5.015   6.172   2.513
42448SOL     OW29350   0.385   4.176   7.159
42448SOL    HW129351   0.377   4.093   7.110
42448SOL    HW229352   0.409   4.240   7.092
42449SOL     OW29353   8.783   8.851   4.777
42449SOL    HW129354   8.791   8.836   4.871
42449SOL    HW229355   8.714   8.791   4.749
42450SOL     OW29356   9.401   6.886   3.799
42450SOL    HW129357   9.459   6.949   3.841
42450SOL    HW229358   9.458   6.812   3.778
42451SOL     OW29359   1.297   4.858   5.572
42451SOL    HW129360   1.311   4.804   5.494
42451SOL    HW229361   1.281   4.795   5.642
42452SOL     OW29362   1.598  10.216   5.184
42452SOL    HW129363   1.596  10.305   5.149
42452SOL    HW229364   1.553  10.222   5.268
42453SOL     OW29365   1.553   3.770   8.686
42453SOL    HW129366   1.507   3.849   8.715
42453SOL    HW229367   1.632   3.802   8.643
42454SOL     OW29368   4.657  10.334   4.798
42454SOL    HW129369   4.569  10.369   4.811
42454SOL    HW229370   4.674  10.347   4.704
42455SOL     OW29371   1.054   4.339   6.487
42455SOL    HW129372   1.090   4.278   6.422
42455SOL    HW229373   1.095   4.423   6.467
42456SOL     OW29374   8.726   7.815   0.138
42456SOL    HW129375   8.718   7.898   0.185
42456SOL    HW229376   8.815   7.816   0.102
42457SOL     OW29377   6.703   5.395   7.652
42457SOL    HW129378   6.674   5.342   7.577
42457SOL    HW229379   6.638   5.377   7.720
42458SOL     OW29380   3.335   9.225   0.986
42458SOL    HW129381   3.424   9.190   0.975
42458SOL    HW229382   3.297   9.222   0.898
42459SOL     OW29383   3.557   0.394   0.926
42459SOL    HW129384   3.476   0.396   0.876
42459SOL    HW229385   3.626   0.407   0.860
42460SOL     OW29386   4.581   2.182   4.288
42460SOL    HW129387   4.664   2.141   4.264
42460SOL    HW229388   4.598   2.276   4.283
42461SOL     OW29389   7.700   8.883   9.888
42461SOL    HW129390   7.656   8.896   9.804
42461SOL    HW229391   7.739   8.796   9.881
42462SOL     OW29392  10.828   5.119  10.410
42462SOL    HW129393  10.790   5.031  10.402
42462SOL    HW229394  10.798   5.165  10.331
42463SOL     OW29395   1.846   9.979   7.318
42463SOL    HW129396   1.803   9.951   7.398
42463SOL    HW229397   1.937   9.993   7.343
42464SOL     OW29398   0.840   0.679   5.848
42464SOL    HW129399   0.764   0.662   5.904
42464SOL    HW229400   0.803   0.720   5.769
42465SOL     OW29401   4.611   4.737   2.536
42465SOL    HW129402   4.547   4.673   2.567
42465SOL    HW229403   4.583   4.758   2.447
42466SOL     OW29404   8.171   9.941   3.030
42466SOL    HW129405   8.143   9.880   2.962
42466SOL    HW229406   8.214   9.886   3.095
42467SOL     OW29407   8.551   6.457  10.542
42467SOL    HW129408   8.574   6.525  10.604
42467SOL    HW229409   8.626   6.397  10.543
42468SOL     OW29410   2.124  10.603   1.719
42468SOL    HW129411   2.140  10.610   1.625
42468SOL    HW229412   2.047  10.547   1.726
42469SOL     OW29413   1.050   4.277   1.566
42469SOL    HW129414   1.011   4.280   1.478
42469SOL    HW229415   1.073   4.185   1.579
42470SOL     OW29416   3.038   8.638   4.800
42470SOL    HW129417   3.005   8.557   4.759
42470SOL    HW229418   3.038   8.702   4.729
42471SOL     OW29419  10.556   6.972   0.716
42471SOL    HW129420  10.619   7.028   0.670
42471SOL    HW229421  10.585   6.882   0.696
42472SOL     OW29422   8.113   1.746   5.979
42472SOL    HW129423   8.020   1.724   5.971
42472SOL    HW229424   8.115   1.832   6.020
42473SOL     OW29425   9.135   4.361   9.088
42473SOL    HW129426   9.142   4.389   8.996
42473SOL    HW229427   9.061   4.300   9.089
42474SOL     OW29428   8.372   6.015   4.166
42474SOL    HW129429   8.404   5.963   4.240
42474SOL    HW229430   8.309   6.076   4.204
42475SOL     OW29431   2.930   1.605  10.706
42475SOL    HW129432   2.933   1.509  10.703
42475SOL    HW229433   3.018   1.631  10.734
42476SOL     OW29434  11.041   9.747  10.877
42476SOL    HW129435  11.077   9.812  10.937
42476SOL    HW229436  10.992   9.798  10.812
42477SOL     OW29437   9.086   6.968   2.655
42477SOL    HW129438   8.992   6.970   2.673
42477SOL    HW229439   9.092   6.965   2.559
42478SOL     OW29440   4.876  10.661   0.420
42478SOL    HW129441   4.820  10.617   0.484
42478SOL    HW229442   4.860  10.754   0.433
42479SOL     OW29443   2.028  10.573  10.070
42479SOL    HW129444   1.990  10.544   9.987
42479SOL    HW229445   1.994  10.512  10.135
42480SOL     OW29446   0.947   7.402   0.323
42480SOL    HW129447   0.883   7.456   0.276
42480SOL    HW229448   0.982   7.342   0.256
42481SOL     OW29449   8.499   5.309   0.324
42481SOL    HW129450   8.574   5.332   0.379
42481SOL    HW229451   8.538   5.278   0.242
42482SOL     OW29452   3.899   4.745   9.910
42482SOL    HW129453   3.886   4.664   9.860
42482SOL    HW229454   3.813   4.764   9.948
42483SOL     OW29455   9.926   6.399   2.432
42483SOL    HW129456   9.917   6.431   2.342
42483SOL    HW229457   9.837   6.396   2.465
42484SOL     OW29458   4.281   5.875  10.383
42484SOL    HW129459   4.344   5.844  10.448
42484SOL    HW229460   4.223   5.800  10.369
42485SOL     OW29461   7.917   2.995   7.967
42485SOL    HW129462   7.983   2.974   7.901
42485SOL    HW229463   7.881   3.079   7.939
42486SOL     OW29464   1.060   1.507  11.008
42486SOL    HW129465   0.995   1.457  11.057
42486SOL    HW229466   1.073   1.457  10.927
42487SOL     OW29467   9.007   1.056  10.180
42487SOL    HW129468   9.012   0.960  10.178
42487SOL    HW229469   8.919   1.076  10.148
42488SOL     OW29470   1.248   9.726   8.428
42488SOL    HW129471   1.273   9.776   8.350
42488SOL    HW229472   1.240   9.636   8.396
42489SOL     OW29473   8.556   4.380   5.769
42489SOL    HW129474   8.509   4.362   5.687
42489SOL    HW229475   8.491   4.365   5.837
42490SOL     OW29476   6.513   8.405   9.513
42490SOL    HW129477   6.565   8.369   9.441
42490SOL    HW229478   6.519   8.339   9.582
42491SOL     OW29479   2.578   9.047   2.504
42491SOL    HW129480   2.673   9.038   2.514
42491SOL    HW229481   2.542   8.972   2.552
42492SOL     OW29482   1.154   3.614   1.459
42492SOL    HW129483   1.106   3.693   1.435
42492SOL    HW229484   1.246   3.638   1.450
42493SOL     OW29485   1.120   7.462   2.290
42493SOL    HW129486   1.209   7.495   2.274
42493SOL    HW229487   1.063   7.536   2.269
42494SOL     OW29488   1.316   8.379   3.073
42494SOL    HW129489   1.281   8.305   3.023
42494SOL    HW229490   1.368   8.428   3.009
42495SOL     OW29491   6.015   2.899   7.104
42495SOL    HW129492   6.075   2.971   7.124
42495SOL    HW229493   5.931   2.925   7.141
42496SOL     OW29494   0.258   5.155   7.161
42496SOL    HW129495   0.269   5.072   7.207
42496SOL    HW229496   0.261   5.221   7.230
42497SOL     OW29497   1.312   7.214   1.508
42497SOL    HW129498   1.249   7.176   1.447
42497SOL    HW229499   1.266   7.288   1.547
42498SOL     OW29500   4.469   2.320   1.852
42498SOL    HW129501   4.561   2.343   1.865
42498SOL    HW229502   4.464   2.291   1.761
42499SOL     OW29503  10.844   0.033   0.472
42499SOL    HW129504  10.856   0.124   0.498
42499SOL    HW229505  10.922  -0.012   0.504
42500SOL     OW29506   1.398   6.151   8.824
42500SOL    HW129507   1.421   6.119   8.737
42500SOL    HW229508   1.305   6.132   8.832
42501SOL     OW29509   4.013   0.885   7.510
42501SOL    HW129510   3.955   0.821   7.551
42501SOL    HW229511   4.099   0.869   7.550
42502SOL     OW29512   9.832   1.069  10.897
42502SOL    HW129513   9.920   1.032  10.886
42502SOL    HW229514   9.844   1.163  10.886
42503SOL     OW29515   9.601   6.851   5.877
42503SOL    HW129516   9.622   6.839   5.969
42503SOL    HW229517   9.684   6.876   5.836
42504SOL     OW29518   7.733   1.528  10.918
42504SOL    HW129519   7.680   1.581  10.858
42504SOL    HW229520   7.669   1.477  10.968
42505SOL     OW29521   9.840   0.361   1.668
42505SOL    HW129522   9.877   0.447   1.648
42505SOL    HW229523   9.896   0.327   1.738
42506SOL     OW29524   0.379   6.213   5.083
42506SOL    HW129525   0.359   6.240   5.172
42506SOL    HW229526   0.451   6.270   5.056
42507SOL     OW29527  10.995   7.554   4.763
42507SOL    HW129528  11.044   7.574   4.842
42507SOL    HW229529  11.045   7.595   4.693
42508SOL     OW29530   7.463   5.993   6.266
42508SOL    HW129531   7.382   6.031   6.233
42508SOL    HW229532   7.533   6.043   6.223
42509SOL     OW29533   3.751   8.034   9.034
42509SOL    HW129534   3.815   8.040   8.963
42509SOL    HW229535   3.790   8.084   9.105
42510SOL     OW29536   1.773  10.251   2.173
42510SOL    HW129537   1.784  10.272   2.265
42510SOL    HW229538   1.723  10.169   2.173
42511SOL     OW29539   0.865   0.421  10.042
42511SOL    HW129540   0.913   0.430   9.959
42511SOL    HW229541   0.910   0.350  10.088
42512SOL     OW29542   0.763   2.983   2.842
42512SOL    HW129543   0.831   3.050   2.837
42512SOL    HW229544   0.681   3.032   2.839
42513SOL     OW29545   7.386   9.551   1.902
42513SOL    HW129546   7.454   9.616   1.917
42513SOL    HW229547   7.420   9.471   1.942
42514SOL     OW29548   8.445   6.630   1.667
42514SOL    HW129549   8.377   6.565   1.647
42514SOL    HW229550   8.456   6.679   1.585
42515SOL     OW29551   8.652   0.086   5.671
42515SOL    HW129552   8.738   0.097   5.630
42515SOL    HW229553   8.662   0.009   5.727
42516SOL     OW29554  10.276   5.466   7.364
42516SOL    HW129555  10.354   5.504   7.323
42516SOL    HW229556  10.203   5.505   7.316
42517SOL     OW29557   7.988   7.272   6.657
42517SOL    HW129558   8.038   7.227   6.725
42517SOL    HW229559   8.029   7.358   6.649
42518SOL     OW29560   7.773  10.066   1.575
42518SOL    HW129561   7.680  10.066   1.554
42518SOL    HW229562   7.776  10.073   1.670
42519SOL     OW29563   8.861   5.303   9.405
42519SOL    HW129564   8.901   5.332   9.486
42519SOL    HW229565   8.894   5.214   9.393
42520SOL     OW29566   3.115   7.581   7.866
42520SOL    HW129567   3.199   7.543   7.838
42520SOL    HW229568   3.122   7.674   7.844
42521SOL     OW29569   9.463   4.841   3.008
42521SOL    HW129570   9.393   4.779   2.988
42521SOL    HW229571   9.453   4.860   3.101
42522SOL     OW29572   6.576   6.992   5.725
42522SOL    HW129573   6.609   7.057   5.664
42522SOL    HW229574   6.489   7.023   5.749
42523SOL     OW29575   3.238   7.581   9.424
42523SOL    HW129576   3.275   7.508   9.474
42523SOL    HW229577   3.185   7.538   9.356
42524SOL     OW29578   1.282   4.993   3.585
42524SOL    HW129579   1.221   4.948   3.527
42524SOL    HW229580   1.227   5.030   3.653
42525SOL     OW29581   6.982   9.669   5.957
42525SOL    HW129582   6.971   9.735   6.024
42525SOL    HW229583   7.076   9.669   5.938
42526SOL     OW29584   5.134   6.495   0.545
42526SOL    HW129585   5.126   6.425   0.480
42526SOL    HW229586   5.046   6.505   0.580
42527SOL     OW29587   2.878   3.586   1.840
42527SOL    HW129588   2.841   3.574   1.752
42527SOL    HW229589   2.965   3.622   1.824
42528SOL     OW29590   1.811   0.357  10.505
42528SOL    HW129591   1.883   0.307  10.544
42528SOL    HW229592   1.764   0.394  10.580
42529SOL     OW29593   9.884   5.223   2.590
42529SOL    HW129594   9.853   5.134   2.570
42529SOL    HW229595   9.964   5.232   2.537
42530SOL     OW29596  10.315   8.240   6.624
42530SOL    HW129597  10.396   8.278   6.590
42530SOL    HW229598  10.314   8.263   6.717
42531SOL     OW29599   1.172   0.384   4.319
42531SOL    HW129600   1.243   0.373   4.255
42531SOL    HW229601   1.131   0.297   4.325
42532SOL     OW29602   7.844  10.677   3.712
42532SOL    HW129603   7.826  10.632   3.629
42532SOL    HW229604   7.772  10.739   3.722
42533SOL     OW29605   6.631   8.138   0.084
42533SOL    HW129606   6.657   8.077   0.015
42533SOL    HW229607   6.713   8.158   0.130
42534SOL     OW29608  10.919   8.728   3.873
42534SOL    HW129609  10.853   8.780   3.828
42534SOL    HW229610  10.986   8.791   3.900
42535SOL     OW29611   8.737   4.936   9.362
42535SOL    HW129612   8.771   4.994   9.429
42535SOL    HW229613   8.737   4.989   9.282
42536SOL     OW29614   2.221   8.019   1.536
42536SOL    HW129615   2.275   7.995   1.611
42536SOL    HW229616   2.274   7.994   1.460
42537SOL     OW29617   9.457  10.975   6.006
42537SOL    HW129618   9.407  10.913   6.058
42537SOL    HW229619   9.529  10.923   5.970
42538SOL     OW29620   9.902   4.406   9.906
42538SOL    HW129621   9.904   4.319   9.866
42538SOL    HW229622   9.834   4.453   9.857
42539SOL     OW29623   8.676   8.923   8.423
42539SOL    HW129624   8.723   8.839   8.419
42539SOL    HW229625   8.584   8.899   8.418
42540SOL     OW29626   0.256   2.911   5.998
42540SOL    HW129627   0.338   2.904   5.949
42540SOL    HW229628   0.252   3.002   6.027
42541SOL     OW29629  10.834   2.165   0.374
42541SOL    HW129630  10.784   2.117   0.440
42541SOL    HW229631  10.917   2.117   0.367
42542SOL     OW29632   9.878   1.805   1.571
42542SOL    HW129633   9.964   1.833   1.539
42542SOL    HW229634   9.897   1.735   1.633
42543SOL     OW29635   3.433   3.020   3.813
42543SOL    HW129636   3.387   3.098   3.844
42543SOL    HW229637   3.419   3.020   3.718
42544SOL     OW29638   1.646   2.051  10.481
42544SOL    HW129639   1.737   2.081  10.486
42544SOL    HW229640   1.608   2.075  10.565
42545SOL     OW29641   9.030   8.586   5.096
42545SOL    HW129642   9.120   8.556   5.080
42545SOL    HW229643   8.994   8.522   5.157
42546SOL     OW29644   0.972   9.482   5.045
42546SOL    HW129645   0.942   9.401   5.003
42546SOL    HW229646   0.909   9.548   5.016
42547SOL     OW29647   4.559   9.147   2.182
42547SOL    HW129648   4.469   9.137   2.152
42547SOL    HW229649   4.584   9.059   2.212
42548SOL     OW29650   1.155   4.988   2.354
42548SOL    HW129651   1.230   4.952   2.306
42548SOL    HW229652   1.188   5.069   2.392
42549SOL     OW29653   9.950   9.140   2.407
42549SOL    HW129654   9.982   9.062   2.453
42549SOL    HW229655   9.928   9.108   2.319
42550SOL     OW29656   1.684   3.518   3.661
42550SOL    HW129657   1.597   3.544   3.632
42550SOL    HW229658   1.702   3.437   3.612
42551SOL     OW29659   9.945   9.532  10.297
42551SOL    HW129660   9.872   9.587  10.271
42551SOL    HW229661  10.007   9.538  10.224
42552SOL     OW29662  10.337   5.246   8.486
42552SOL    HW129663  10.311   5.337   8.493
42552SOL    HW229664  10.309   5.206   8.568
42553SOL     OW29665   1.080   7.247   4.107
42553SOL    HW129666   1.160   7.278   4.149
42553SOL    HW229667   1.103   7.160   4.074
42554SOL     OW29668   2.683   3.943  10.453
42554SOL    HW129669   2.749   3.932  10.521
42554SOL    HW229670   2.732   3.976  10.378
42555SOL     OW29671   7.581  11.044   6.561
42555SOL    HW129672   7.579  11.140   6.562
42555SOL    HW229673   7.577  11.021   6.468
42556SOL     OW29674   1.224   7.850   9.966
42556SOL    HW129675   1.296   7.913   9.956
42556SOL    HW229676   1.254   7.790  10.034
42557SOL     OW29677   4.708   0.285   3.865
42557SOL    HW129678   4.772   0.247   3.804
42557SOL    HW229679   4.703   0.377   3.839
42558SOL     OW29680   7.085   9.743   0.157
42558SOL    HW129681   7.014   9.793   0.118
42558SOL    HW229682   7.045   9.699   0.232
42559SOL     OW29683   0.217   4.354   4.203
42559SOL    HW129684   0.200   4.400   4.121
42559SOL    HW229685   0.237   4.264   4.176
42560SOL     OW29686   0.714   7.904   6.415
42560SOL    HW129687   0.775   7.952   6.359
42560SOL    HW229688   0.770   7.846   6.467
42561SOL     OW29689   4.388  10.940   5.696
42561SOL    HW129690   4.417  10.852   5.674
42561SOL    HW229691   4.401  10.948   5.790
42562SOL     OW29692   1.884   6.709   4.842
42562SOL    HW129693   1.926   6.626   4.819
42562SOL    HW229694   1.951   6.775   4.825
42563SOL     OW29695   7.793   0.682   1.867
42563SOL    HW129696   7.847   0.605   1.851
42563SOL    HW229697   7.840   0.754   1.825
42564SOL     OW29698   1.450   3.406   2.212
42564SOL    HW129699   1.543   3.392   2.233
42564SOL    HW229700   1.421   3.322   2.175
42565SOL     OW29701   4.093   9.800   6.852
42565SOL    HW129702   4.104   9.710   6.883
42565SOL    HW229703   4.096   9.792   6.756
42566SOL     OW29704   8.375  10.433   7.492
42566SOL    HW129705   8.331  10.518   7.493
42566SOL    HW229706   8.311  10.373   7.530
42567SOL     OW29707   1.979   0.126   9.468
42567SOL    HW129708   2.068   0.105   9.496
42567SOL    HW229709   1.923   0.081   9.531
42568SOL     OW29710   6.570   1.594  10.164
42568SOL    HW129711   6.500   1.535  10.191
42568SOL    HW229712   6.532   1.681  10.171
42569SOL     OW29713   0.725   2.987   0.547
42569SOL    HW129714   0.646   3.038   0.562
42569SOL    HW229715   0.791   3.025   0.605
42570SOL     OW29716   3.623   4.736  10.920
42570SOL    HW129717   3.598   4.777  11.002
42570SOL    HW229718   3.552   4.674  10.902
42571SOL     OW29719   8.088   7.510   3.314
42571SOL    HW129720   8.061   7.594   3.277
42571SOL    HW229721   8.135   7.532   3.394
42572SOL     OW29722   7.126   8.753   6.371
42572SOL    HW129723   7.053   8.694   6.355
42572SOL    HW229724   7.092   8.840   6.352
42573SOL     OW29725   9.614   0.769   3.545
42573SOL    HW129726   9.633   0.749   3.453
42573SOL    HW229727   9.519   0.758   3.552
42574SOL     OW29728   3.602   5.422   0.108
42574SOL    HW129729   3.659   5.480   0.057
42574SOL    HW229730   3.658   5.347   0.129
42575SOL     OW29731   0.190   6.282   4.154
42575SOL    HW129732   0.137   6.303   4.231
42575SOL    HW229733   0.274   6.253   4.189
42576SOL     OW29734   2.227   2.441   7.373
42576SOL    HW129735   2.310   2.486   7.386
42576SOL    HW229736   2.161   2.503   7.403
42577SOL     OW29737   0.521  10.157   6.731
42577SOL    HW129738   0.521  10.111   6.647
42577SOL    HW229739   0.439  10.131   6.772
42578SOL     OW29740   4.248   5.482   4.632
42578SOL    HW129741   4.338   5.451   4.618
42578SOL    HW229742   4.193   5.417   4.588
42579SOL     OW29743   9.863   9.654   6.616
42579SOL    HW129744   9.886   9.723   6.677
42579SOL    HW229745   9.768   9.660   6.608
42580SOL     OW29746   7.660   8.492   7.334
42580SOL    HW129747   7.699   8.437   7.265
42580SOL    HW229748   7.574   8.454   7.349
42581SOL     OW29749   2.739   6.462   3.832
42581SOL    HW129750   2.721   6.452   3.925
42581SOL    HW229751   2.668   6.516   3.799
42582SOL     OW29752  10.904  10.187   7.394
42582SOL    HW129753  10.876  10.126   7.325
42582SOL    HW229754  10.857  10.268   7.375
42583SOL     OW29755   2.776   5.067   0.813
42583SOL    HW129756   2.834   5.032   0.745
42583SOL    HW229757   2.798   5.160   0.817
42584SOL     OW29758   7.347   7.394   4.367
42584SOL    HW129759   7.379   7.337   4.297
42584SOL    HW229760   7.405   7.470   4.365
42585SOL     OW29761  10.113   3.322   6.940
42585SOL    HW129762  10.094   3.313   6.846
42585SOL    HW229763  10.186   3.262   6.955
42586SOL     OW29764   3.577   6.257   9.012
42586SOL    HW129765   3.567   6.188   8.946
42586SOL    HW229766   3.580   6.338   8.961
42587SOL     OW29767   6.294   3.320   4.447
42587SOL    HW129768   6.222   3.379   4.425
42587SOL    HW229769   6.252   3.246   4.492
42588SOL     OW29770  11.096   3.727   0.587
42588SOL    HW129771  11.168   3.704   0.645
42588SOL    HW229772  11.018   3.696   0.632
42589SOL     OW29773   8.964   6.174   6.385
42589SOL    HW129774   8.932   6.146   6.299
42589SOL    HW229775   8.886   6.175   6.440
42590SOL     OW29776   4.242   7.341   7.071
42590SOL    HW129777   4.331   7.368   7.046
42590SOL    HW229778   4.202   7.315   6.988
42591SOL     OW29779   7.513   1.987   4.446
42591SOL    HW129780   7.470   2.063   4.406
42591SOL    HW229781   7.460   1.966   4.523
42592SOL     OW29782   3.047  10.742  11.037
42592SOL    HW129783   3.095  10.781  10.964
42592SOL    HW229784   3.066  10.648  11.031
42593SOL     OW29785   1.386   9.787   5.111
42593SOL    HW129786   1.420   9.753   5.028
42593SOL    HW229787   1.369   9.879   5.094
42594SOL     OW29788   3.214  10.508   9.910
42594SOL    HW129789   3.131  10.518   9.957
42594SOL    HW229790   3.230  10.414   9.909
42595SOL     OW29791   7.117   1.142   4.540
42595SOL    HW129792   7.051   1.107   4.480
42595SOL    HW229793   7.155   1.216   4.493
42596SOL     OW29794  10.858   4.664   9.108
42596SOL    HW129795  10.796   4.623   9.047
42596SOL    HW229796  10.919   4.711   9.051
42597SOL     OW29797   0.658   4.044   7.288
42597SOL    HW129798   0.594   3.986   7.329
42597SOL    HW229799   0.650   4.026   7.194
42598SOL     OW29800   2.656   8.264   9.504
42598SOL    HW129801   2.572   8.299   9.534
42598SOL    HW229802   2.687   8.210   9.576
42599SOL     OW29803   9.971  11.088   5.646
42599SOL    HW129804  10.061  11.095   5.613
42599SOL    HW229805   9.925  11.039   5.578
42600SOL     OW29806   2.418   3.723   9.944
42600SOL    HW129807   2.398   3.789   9.878
42600SOL    HW229808   2.505   3.691   9.920
42601SOL     OW29809   8.104   8.672   5.925
42601SOL    HW129810   8.135   8.647   6.012
42601SOL    HW229811   8.118   8.594   5.871
42602SOL     OW29812   8.048   8.012   2.263
42602SOL    HW129813   7.992   7.934   2.266
42602SOL    HW229814   8.059   8.037   2.354
42603SOL     OW29815  10.907   6.126   7.474
42603SOL    HW129816  10.958   6.187   7.527
42603SOL    HW229817  10.968   6.097   7.405
42604SOL     OW29818  10.815   9.703   0.146
42604SOL    HW129819  10.900   9.713   0.188
42604SOL    HW229820  10.824   9.749   0.063
42605SOL     OW29821   7.358   0.220   5.551
42605SOL    HW129822   7.277   0.264   5.574
42605SOL    HW229823   7.388   0.181   5.633
42606SOL     OW29824   0.187   6.753   4.816
42606SOL    HW129825   0.120   6.686   4.799
42606SOL    HW229826   0.173   6.819   4.748
42607SOL     OW29827  10.077   7.302   9.940
42607SOL    HW129828   9.992   7.258   9.933
42607SOL    HW229829  10.123   7.254  10.009
42608SOL     OW29830   0.423   4.504   9.361
42608SOL    HW129831   0.467   4.459   9.433
42608SOL    HW229832   0.467   4.471   9.282
42609SOL     OW29833   1.185  11.023   7.102
42609SOL    HW129834   1.130  10.958   7.145
42609SOL    HW229835   1.128  11.098   7.089
42610SOL     OW29836   9.085   5.447   7.717
42610SOL    HW129837   9.125   5.428   7.802
42610SOL    HW229838   9.155   5.430   7.653
42611SOL     OW29839   9.988   4.247   2.385
42611SOL    HW129840  10.078   4.273   2.405
42611SOL    HW229841   9.990   4.225   2.292
42612SOL     OW29842   0.554  11.015   9.567
42612SOL    HW129843   0.552  10.974   9.480
42612SOL    HW229844   0.563  10.942   9.628
42613SOL     OW29845   1.426   9.333   4.091
42613SOL    HW129846   1.346   9.384   4.080
42613SOL    HW229847   1.421   9.297   4.180
42614SOL     OW29848   1.264   6.962   1.619
42614SOL    HW129849   1.285   6.886   1.564
42614SOL    HW229850   1.296   7.037   1.569
42615SOL     OW29851  10.556   1.788   5.497
42615SOL    HW129852  10.618   1.736   5.446
42615SOL    HW229853  10.587   1.878   5.488
42616SOL     OW29854   3.770   2.628   5.255
42616SOL    HW129855   3.749   2.684   5.180
42616SOL    HW229856   3.853   2.662   5.288
42617SOL     OW29857   6.180   0.034  10.682
42617SOL    HW129858   6.242   0.009  10.751
42617SOL    HW229859   6.172   0.129  10.689
42618SOL     OW29860  10.899   3.854   4.698
42618SOL    HW129861  10.975   3.870   4.642
42618SOL    HW229862  10.910   3.763   4.727
42619SOL     OW29863   9.002   6.185   2.232
42619SOL    HW129864   8.955   6.105   2.206
42619SOL    HW229865   9.041   6.217   2.151
42620SOL     OW29866   8.020   1.138   4.431
42620SOL    HW129867   7.991   1.057   4.474
42620SOL    HW229868   8.025   1.114   4.338
42621SOL     OW29869   2.339  10.657  10.084
42621SOL    HW129870   2.247  10.658  10.058
42621SOL    HW229871   2.337  10.657  10.179
42622SOL     OW29872   2.363   5.844   5.109
42622SOL    HW129873   2.453   5.874   5.095
42622SOL    HW229874   2.315   5.922   5.135
42623SOL     OW29875   8.065   0.133   5.090
42623SOL    HW129876   8.027   0.177   5.165
42623SOL    HW229877   8.159   0.128   5.109
42624SOL     OW29878   7.700   9.737   4.592
42624SOL    HW129879   7.645   9.792   4.536
42624SOL    HW229880   7.692   9.649   4.553
42625SOL     OW29881   9.422   9.964   8.584
42625SOL    HW129882   9.481  10.011   8.525
42625SOL    HW229883   9.399  10.028   8.651
42626SOL     OW29884   1.688   7.254   5.366
42626SOL    HW129885   1.647   7.174   5.398
42626SOL    HW229886   1.624   7.323   5.382
42627SOL     OW29887   7.815   2.328   3.194
42627SOL    HW129888   7.805   2.269   3.119
42627SOL    HW229889   7.737   2.313   3.247
42628SOL     OW29890   0.007   3.130   0.562
42628SOL    HW129891   0.075   3.071   0.593
42628SOL    HW229892  -0.075   3.085   0.583
42629SOL     OW29893   7.723   5.719   6.115
42629SOL    HW129894   7.629   5.723   6.098
42629SOL    HW229895   7.737   5.780   6.187
42630SOL     OW29896   6.255   4.313   8.007
42630SOL    HW129897   6.272   4.281   7.918
42630SOL    HW229898   6.261   4.234   8.061
42631SOL     OW29899   1.419   6.791   2.763
42631SOL    HW129900   1.371   6.789   2.845
42631SOL    HW229901   1.505   6.827   2.786
42632SOL     OW29902   3.990   6.201   2.547
42632SOL    HW129903   4.052   6.195   2.620
42632SOL    HW229904   4.028   6.145   2.479
42633SOL     OW29905  10.057   7.327  10.647
42633SOL    HW129906  10.124   7.381  10.689
42633SOL    HW229907  10.097   7.301  10.563
42634SOL     OW29908  10.322   7.335   7.422
42634SOL    HW129909  10.409   7.313   7.386
42634SOL    HW229910  10.325   7.429   7.437
42635SOL     OW29911   0.260   7.350   6.908
42635SOL    HW129912   0.201   7.275   6.916
42635SOL    HW229913   0.202   7.426   6.907
42636SOL     OW29914   8.165   9.218   3.519
42636SOL    HW129915   8.076   9.195   3.491
42636SOL    HW229916   8.164   9.209   3.614
42637SOL     OW29917  10.200   6.682   9.827
42637SOL    HW129918  10.144   6.745   9.782
42637SOL    HW229919  10.142   6.609   9.848
42638SOL     OW29920   2.490   9.460  10.936
42638SOL    HW129921   2.404   9.502  10.941
42638SOL    HW229922   2.506   9.426  11.024
42639SOL     OW29923   3.491   8.542   2.220
42639SOL    HW129924   3.468   8.565   2.310
42639SOL    HW229925   3.570   8.593   2.201
42640SOL     OW29926   3.362   3.938   3.869
42640SOL    HW129927   3.392   3.847   3.863
42640SOL    HW229928   3.443   3.989   3.875
42641SOL     OW29929   8.124   0.709   4.782
42641SOL    HW129930   8.200   0.766   4.794
42641SOL    HW229931   8.058   0.765   4.741
42642SOL     OW29932   9.925   9.532   2.613
42642SOL    HW129933   9.959   9.539   2.524
42642SOL    HW229934   9.830   9.531   2.602
42643SOL     OW29935   9.556   2.359   4.197
42643SOL    HW129936   9.507   2.424   4.146
42643SOL    HW229937   9.609   2.410   4.257
42644SOL     OW29938   9.890   7.438   7.197
42644SOL    HW129939   9.954   7.403   7.259
42644SOL    HW229940   9.874   7.365   7.137
42645SOL     OW29941   9.186  10.302   6.540
42645SOL    HW129942   9.094  10.327   6.538
42645SOL    HW229943   9.233  10.384   6.528
42646SOL     OW29944   0.579   6.247   8.192
42646SOL    HW129945   0.623   6.230   8.109
42646SOL    HW229946   0.644   6.294   8.244
42647SOL     OW29947   6.171   6.902   4.303
42647SOL    HW129948   6.106   6.955   4.257
42647SOL    HW229949   6.255   6.945   4.285
42648SOL     OW29950   2.667   7.113   2.824
42648SOL    HW129951   2.685   7.056   2.899
42648SOL    HW229952   2.576   7.141   2.836
42649SOL     OW29953   1.521   7.052   1.002
42649SOL    HW129954   1.506   6.967   1.044
42649SOL    HW229955   1.481   7.116   1.061
42650SOL     OW29956   0.598   9.813   4.776
42650SOL    HW129957   0.600   9.780   4.686
42650SOL    HW229958   0.609   9.907   4.767
42651SOL     OW29959   2.370   0.393   7.153
42651SOL    HW129960   2.406   0.443   7.226
42651SOL    HW229961   2.304   0.336   7.193
42652SOL     OW29962   7.400   4.663   1.670
42652SOL    HW129963   7.474   4.660   1.731
42652SOL    HW229964   7.353   4.743   1.693
42653SOL     OW29965   3.015   8.514   7.413
42653SOL    HW129966   2.970   8.589   7.374
42653SOL    HW229967   2.970   8.437   7.377
42654SOL     OW29968  10.478  10.175   2.221
42654SOL    HW129969  10.427  10.255   2.233
42654SOL    HW229970  10.515  10.183   2.133
42655SOL     OW29971  10.289   7.437   6.465
42655SOL    HW129972  10.197   7.462   6.469
42655SOL    HW229973  10.317   7.435   6.556
42656SOL     OW29974   2.864   7.944   2.208
42656SOL    HW129975   2.806   7.874   2.238
42656SOL    HW229976   2.932   7.950   2.275
42657SOL     OW29977   0.203   7.059   9.134
42657SOL    HW129978   0.263   7.046   9.207
42657SOL    HW229979   0.258   7.088   9.061
42658SOL     OW29980   4.396   5.528   5.668
42658SOL    HW129981   4.368   5.464   5.602
42658SOL    HW229982   4.446   5.593   5.618
42659SOL     OW29983   5.198   4.687   4.997
42659SOL    HW129984   5.168   4.597   4.982
42659SOL    HW229985   5.290   4.677   5.021
42660SOL     OW29986   8.349   2.394   6.840
42660SOL    HW129987   8.398   2.465   6.799
42660SOL    HW229988   8.358   2.409   6.934
42661SOL     OW29989   7.053   4.275   4.046
42661SOL    HW129990   7.141   4.297   4.077
42661SOL    HW229991   7.018   4.215   4.112
42662SOL     OW29992   8.816   7.636   5.392
42662SOL    HW129993   8.893   7.676   5.433
42662SOL    HW229994   8.799   7.557   5.443
42663SOL     OW29995   4.071   6.874   0.363
42663SOL    HW129996   4.031   6.946   0.316
42663SOL    HW229997   4.044   6.885   0.454
42664SOL     OW29998   3.750   8.755   5.104
42664SOL    HW129999   3.692   8.706   5.162
42664SOL    HW230000   3.761   8.698   5.027
42665SOL     OW30001   8.652   8.310   1.819
42665SOL    HW130002   8.596   8.387   1.822
42665SOL    HW230003   8.605   8.248   1.762
42666SOL     OW30004   7.745  10.985   9.087
42666SOL    HW130005   7.684  10.984   9.160
42666SOL    HW230006   7.690  10.978   9.009
42667SOL     OW30007  10.507  10.121   3.937
42667SOL    HW130008  10.504  10.027   3.955
42667SOL    HW230009  10.541  10.160   4.017
42668SOL     OW30010   0.967   2.257   8.590
42668SOL    HW130011   0.889   2.238   8.642
42668SOL    HW230012   0.956   2.205   8.510
42669SOL     OW30013   2.900   9.405   7.324
42669SOL    HW130014   2.931   9.430   7.237
42669SOL    HW230015   2.820   9.456   7.336
42670SOL     OW30016   4.252   8.902   4.595
42670SOL    HW130017   4.216   8.961   4.529
42670SOL    HW230018   4.329   8.863   4.553
42671SOL     OW30019   3.905   6.786   3.713
42671SOL    HW130020   3.921   6.837   3.634
42671SOL    HW230021   3.863   6.847   3.773
42672SOL     OW30022   3.559   4.919   5.479
42672SOL    HW130023   3.589   4.971   5.553
42672SOL    HW230024   3.543   4.832   5.516
42673SOL     OW30025   2.277   0.347   6.287
42673SOL    HW130026   2.264   0.271   6.344
42673SOL    HW230027   2.221   0.330   6.211
42674SOL     OW30028   8.270   1.393   1.981
42674SOL    HW130029   8.226   1.308   1.993
42674SOL    HW230030   8.363   1.372   1.986
42675SOL     OW30031   3.178   9.825   9.258
42675SOL    HW130032   3.242   9.819   9.186
42675SOL    HW230033   3.230   9.811   9.337
42676SOL     OW30034   7.662   9.771   6.745
42676SOL    HW130035   7.601   9.833   6.783
42676SOL    HW230036   7.621   9.744   6.663
42677SOL     OW30037   0.951   3.263   8.485
42677SOL    HW130038   0.925   3.245   8.575
42677SOL    HW230039   0.933   3.181   8.438
42678SOL     OW30040   1.422   9.077   5.644
42678SOL    HW130041   1.419   9.002   5.703
42678SOL    HW230042   1.369   9.050   5.569
42679SOL     OW30043   8.115   1.140  10.045
42679SOL    HW130044   8.083   1.217   9.999
42679SOL    HW230045   8.161   1.174  10.121
42680SOL     OW30046   7.747   8.571   1.282
42680SOL    HW130047   7.654   8.555   1.295
42680SOL    HW230048   7.761   8.555   1.188
42681SOL     OW30049   0.208   1.546   4.594
42681SOL    HW130050   0.246   1.564   4.680
42681SOL    HW230051   0.174   1.457   4.601
42682SOL     OW30052   7.631   8.776   5.571
42682SOL    HW130053   7.695   8.712   5.539
42682SOL    HW230054   7.679   8.858   5.574
42683SOL     OW30055   4.346   2.297   9.441
42683SOL    HW130056   4.433   2.311   9.404
42683SOL    HW230057   4.289   2.356   9.392
42684SOL     OW30058  10.015   8.886   5.966
42684SOL    HW130059  10.059   8.970   5.956
42684SOL    HW230060  10.086   8.822   5.976
42685SOL     OW30061   1.916  11.100   7.184
42685SOL    HW130062   1.821  11.109   7.174
42685SOL    HW230063   1.927  11.028   7.246
42686SOL     OW30064   1.339   9.723   8.090
42686SOL    HW130065   1.363   9.647   8.036
42686SOL    HW230066   1.252   9.702   8.124
42687SOL     OW30067   3.801   7.922   2.304
42687SOL    HW130068   3.772   7.882   2.222
42687SOL    HW230069   3.730   7.980   2.329
42688SOL     OW30070   4.632   9.504   3.731
42688SOL    HW130071   4.611   9.589   3.692
42688SOL    HW230072   4.634   9.520   3.825
42689SOL     OW30073   7.376   0.547   9.418
42689SOL    HW130074   7.457   0.533   9.368
42689SOL    HW230075   7.326   0.609   9.365
42690SOL     OW30076   9.947   4.844  10.851
42690SOL    HW130077   9.999   4.811  10.924
42690SOL    HW230078   9.946   4.772  10.788
42691SOL     OW30079   0.677   6.396   6.138
42691SOL    HW130080   0.646   6.484   6.117
42691SOL    HW230081   0.764   6.391   6.097
42692SOL     OW30082   2.957   2.052  10.665
42692SOL    HW130083   2.871   2.011  10.678
42692SOL    HW230084   2.957   2.127  10.724
42693SOL     OW30085   2.154   6.590   2.929
42693SOL    HW130086   2.217   6.551   2.867
42693SOL    HW230087   2.164   6.684   2.917
42694SOL     OW30088  11.033   9.465   4.777
42694SOL    HW130089  10.995   9.549   4.751
42694SOL    HW230090  11.123   9.486   4.802
42695SOL     OW30091   8.005   9.501   5.037
42695SOL    HW130092   8.054   9.569   4.991
42695SOL    HW230093   7.966   9.448   4.967
42696SOL     OW30094   6.308  10.921   4.805
42696SOL    HW130095   6.277  10.831   4.802
42696SOL    HW230096   6.331  10.941   4.714
42697SOL     OW30097   2.647   9.441   6.123
42697SOL    HW130098   2.587   9.472   6.190
42697SOL    HW230099   2.590   9.404   6.055
42698SOL     OW30100  10.602   1.091   6.219
42698SOL    HW130101  10.575   1.110   6.129
42698SOL    HW230102  10.550   1.014   6.243
42699SOL     OW30103   8.547   8.708   6.844
42699SOL    HW130104   8.557   8.656   6.924
42699SOL    HW230105   8.527   8.643   6.776
42700SOL     OW30106   5.324   6.134   1.061
42700SOL    HW130107   5.368   6.216   1.081
42700SOL    HW230108   5.335   6.123   0.966
42701SOL     OW30109  10.354   1.342   1.522
42701SOL    HW130110  10.433   1.353   1.469
42701SOL    HW230111  10.359   1.252   1.553
42702SOL     OW30112   1.260   9.965   3.750
42702SOL    HW130113   1.345   9.931   3.779
42702SOL    HW230114   1.256  10.053   3.786
42703SOL     OW30115   9.233   6.258   6.906
42703SOL    HW130116   9.162   6.252   6.842
42703SOL    HW230117   9.235   6.171   6.947
42704SOL     OW30118  10.965   5.460   2.414
42704SOL    HW130119  10.909   5.522   2.368
42704SOL    HW230120  10.908   5.419   2.479
42705SOL     OW30121   8.873   4.956   8.316
42705SOL    HW130122   8.861   4.907   8.234
42705SOL    HW230123   8.968   4.965   8.324
42706SOL     OW30124   2.995   7.557   2.599
42706SOL    HW130125   2.978   7.500   2.523
42706SOL    HW230126   3.037   7.499   2.663
42707SOL     OW30127   4.722   7.804   4.062
42707SOL    HW130128   4.750   7.744   3.992
42707SOL    HW230129   4.657   7.755   4.111
42708SOL     OW30130   2.966   4.693   2.416
42708SOL    HW130131   2.956   4.772   2.363
42708SOL    HW230132   3.037   4.713   2.477
42709SOL     OW30133   1.540   9.222   2.084
42709SOL    HW130134   1.481   9.174   2.142
42709SOL    HW230135   1.492   9.230   2.001
42710SOL     OW30136   1.560   1.954   3.274
42710SOL    HW130137   1.563   2.032   3.328
42710SOL    HW230138   1.626   1.895   3.312
42711SOL     OW30139   8.014   9.559   7.574
42711SOL    HW130140   8.106   9.535   7.565
42711SOL    HW230141   7.971   9.518   7.498
42712SOL     OW30142   0.915   3.542   8.406
42712SOL    HW130143   1.011   3.537   8.409
42712SOL    HW230144   0.886   3.469   8.461
42713SOL     OW30145   4.041   5.554   5.903
42713SOL    HW130146   4.074   5.490   5.966
42713SOL    HW230147   4.021   5.631   5.955
42714SOL     OW30148   7.718   2.361   4.182
42714SOL    HW130149   7.771   2.349   4.261
42714SOL    HW230150   7.644   2.301   4.193
42715SOL     OW30151   0.817   5.339  10.859
42715SOL    HW130152   0.861   5.253  10.859
42715SOL    HW230153   0.778   5.345  10.772
42716SOL     OW30154   8.380   7.045   5.240
42716SOL    HW130155   8.445   6.974   5.247
42716SOL    HW230156   8.372   7.080   5.328
42717SOL     OW30157   8.948   5.281   6.487
42717SOL    HW130158   9.004   5.237   6.551
42717SOL    HW230159   9.009   5.328   6.430
42718SOL     OW30160   8.631   5.577   7.517
42718SOL    HW130161   8.611   5.583   7.423
42718SOL    HW230162   8.727   5.580   7.521
42719SOL     OW30163   0.861   0.897   9.206
42719SOL    HW130164   0.855   0.947   9.287
42719SOL    HW230165   0.883   0.962   9.139
42720SOL     OW30166   3.442   7.784   2.857
42720SOL    HW130167   3.395   7.782   2.940
42720SOL    HW230168   3.497   7.705   2.858
42721SOL     OW30169   2.418   8.140   2.034
42721SOL    HW130170   2.335   8.092   2.033
42721SOL    HW230171   2.473   8.092   2.097
42722SOL     OW30172   2.663   0.059   0.872
42722SOL    HW130173   2.749   0.018   0.886
42722SOL    HW230174   2.600  -0.006   0.903
42723SOL     OW30175   4.389   5.822   2.676
42723SOL    HW130176   4.412   5.754   2.740
42723SOL    HW230177   4.402   5.904   2.722
42724SOL     OW30178   9.972  10.850   8.452
42724SOL    HW130179  10.051  10.799   8.434
42724SOL    HW230180  10.005  10.938   8.470
42725SOL     OW30181  10.720   6.644   8.714
42725SOL    HW130182  10.777   6.596   8.653
42725SOL    HW230183  10.736   6.736   8.694
42726SOL     OW30184  10.677   2.539   1.480
42726SOL    HW130185  10.640   2.612   1.431
42726SOL    HW230186  10.714   2.579   1.558
42727SOL     OW30187   8.130   6.265   3.513
42727SOL    HW130188   8.161   6.182   3.475
42727SOL    HW230189   8.136   6.328   3.441
42728SOL     OW30190   8.446  10.542   9.930
42728SOL    HW130191   8.484  10.518  10.014
42728SOL    HW230192   8.493  10.621   9.904
42729SOL     OW30193   9.043  10.718   6.106
42729SOL    HW130194   9.129  10.730   6.147
42729SOL    HW230195   9.045  10.777   6.030
42730SOL     OW30196  10.175   3.318   6.365
42730SOL    HW130197  10.079   3.318   6.366
42730SOL    HW230198  10.198   3.240   6.313
42731SOL     OW30199   7.221   8.884   2.350
42731SOL    HW130200   7.296   8.853   2.298
42731SOL    HW230201   7.204   8.813   2.413
42732SOL     OW30202   0.125   7.717   5.352
42732SOL    HW130203   0.112   7.633   5.306
42732SOL    HW230204   0.039   7.759   5.348
42733SOL     OW30205   3.041   5.600   8.823
42733SOL    HW130206   3.136   5.601   8.837
42733SOL    HW230207   3.007   5.665   8.884
42734SOL     OW30208   1.983   7.367   2.984
42734SOL    HW130209   1.912   7.329   3.036
42734SOL    HW230210   1.944   7.444   2.943
42735SOL     OW30211   7.500   1.880   8.394
42735SOL    HW130212   7.570   1.944   8.388
42735SOL    HW230213   7.421   1.927   8.367
42736SOL     OW30214   9.806   8.797   4.538
42736SOL    HW130215   9.751   8.868   4.570
42736SOL    HW230216   9.790   8.795   4.443
42737SOL     OW30217   9.588   4.763   3.387
42737SOL    HW130218   9.498   4.787   3.367
42737SOL    HW230219   9.589   4.667   3.381
42738SOL     OW30220  10.222   0.670   2.715
42738SOL    HW130221  10.284   0.646   2.646
42738SOL    HW230222  10.274   0.719   2.778
42739SOL     OW30223   2.881   0.173   5.918
42739SOL    HW130224   2.823   0.196   5.990
42739SOL    HW230225   2.968   0.168   5.957
42740SOL     OW30226  10.142  10.689   4.886
42740SOL    HW130227  10.123  10.728   4.971
42740SOL    HW230228  10.148  10.595   4.903
42741SOL     OW30229   9.901   4.183   8.092
42741SOL    HW130230   9.954   4.114   8.132
42741SOL    HW230231   9.935   4.190   8.003
42742SOL     OW30232   8.910   7.263   2.801
42742SOL    HW130233   9.005   7.274   2.809
42742SOL    HW230234   8.873   7.341   2.842
42743SOL     OW30235   0.864   6.501  11.039
42743SOL    HW130236   0.835   6.502  10.947
42743SOL    HW230237   0.917   6.580  11.048
42744SOL     OW30238   0.203  10.384   3.384
42744SOL    HW130239   0.261  10.379   3.460
42744SOL    HW230240   0.250  10.438   3.320
42745SOL     OW30241   0.795   0.133   8.221
42745SOL    HW130242   0.784   0.217   8.264
42745SOL    HW230243   0.846   0.152   8.142
42746SOL     OW30244   1.870   9.925   5.005
42746SOL    HW130245   1.845   9.837   5.033
42746SOL    HW230246   1.874   9.919   4.909
42747SOL     OW30247   4.544   8.021   4.134
42747SOL    HW130248   4.518   8.087   4.070
42747SOL    HW230249   4.628   7.988   4.101
42748SOL     OW30250   1.776   3.647   3.137
42748SOL    HW130251   1.857   3.697   3.128
42748SOL    HW230252   1.710   3.699   3.091
42749SOL     OW30253   8.876   6.144   4.152
42749SOL    HW130254   8.876   6.086   4.228
42749SOL    HW230255   8.789   6.133   4.114
42750SOL     OW30256   9.440   7.113   4.222
42750SOL    HW130257   9.491   7.049   4.272
42750SOL    HW230258   9.392   7.163   4.288
42751SOL     OW30259   3.122   8.822   1.241
42751SOL    HW130260   3.215   8.825   1.220
42751SOL    HW230261   3.105   8.729   1.257
42752SOL     OW30262   4.251   7.988   8.955
42752SOL    HW130263   4.344   7.989   8.934
42752SOL    HW230264   4.247   8.014   9.047
42753SOL     OW30265   7.855  10.249   7.442
42753SOL    HW130266   7.865  10.299   7.523
42753SOL    HW230267   7.770  10.206   7.451
42754SOL     OW30268   1.025   4.137   9.486
42754SOL    HW130269   0.962   4.102   9.422
42754SOL    HW230270   0.978   4.137   9.569
42755SOL     OW30271   4.068   2.896   3.269
42755SOL    HW130272   4.091   2.803   3.269
42755SOL    HW230273   4.074   2.922   3.361
42756SOL     OW30274   6.473  10.846   4.306
42756SOL    HW130275   6.540  10.885   4.362
42756SOL    HW230276   6.498  10.871   4.217
42757SOL     OW30277   6.955   8.119   9.733
42757SOL    HW130278   6.999   8.034   9.745
42757SOL    HW230279   6.995   8.176   9.798
42758SOL     OW30280   0.228   7.346   0.267
42758SOL    HW130281   0.203   7.352   0.359
42758SOL    HW230282   0.286   7.270   0.263
42759SOL     OW30283   2.220  10.914   4.643
42759SOL    HW130284   2.148  10.871   4.688
42759SOL    HW230285   2.185  10.999   4.616
42760SOL     OW30286   3.341  10.129   4.603
42760SOL    HW130287   3.422  10.086   4.632
42760SOL    HW230288   3.288  10.057   4.568
42761SOL     OW30289   8.611   5.578   0.791
42761SOL    HW130290   8.650   5.657   0.754
42761SOL    HW230291   8.663   5.506   0.755
42762SOL     OW30292   0.150  10.484  10.171
42762SOL    HW130293   0.126  10.508  10.081
42762SOL    HW230294   0.088  10.533  10.226
42763SOL     OW30295   6.306   6.861   0.502
42763SOL    HW130296   6.390   6.816   0.513
42763SOL    HW230297   6.274   6.830   0.417
42764SOL     OW30298   7.582   5.816   6.465
42764SOL    HW130299   7.542   5.865   6.393
42764SOL    HW230300   7.665   5.861   6.481
42765SOL     OW30301   6.701   1.658   6.158
42765SOL    HW130302   6.713   1.633   6.249
42765SOL    HW230303   6.609   1.685   6.152
42766SOL     OW30304   9.100   7.920   6.654
42766SOL    HW130305   9.028   7.860   6.633
42766SOL    HW230306   9.059   8.006   6.657
42767SOL     OW30307   3.293   6.096   3.484
42767SOL    HW130308   3.271   6.004   3.500
42767SOL    HW230309   3.369   6.093   3.426
42768SOL     OW30310   3.243   8.273   8.380
42768SOL    HW130311   3.257   8.332   8.453
42768SOL    HW230312   3.202   8.196   8.419
42769SOL     OW30313   1.770   1.542   5.422
42769SOL    HW130314   1.819   1.583   5.493
42769SOL    HW230315   1.799   1.587   5.343
42770SOL     OW30316   0.315   6.597   8.725
42770SOL    HW130317   0.219   6.599   8.718
42770SOL    HW230318   0.336   6.670   8.782
42771SOL     OW30319  10.966   2.480   1.413
42771SOL    HW130320  10.872   2.499   1.408
42771SOL    HW230321  10.973   2.411   1.479
42772SOL     OW30322   2.116   0.919   5.860
42772SOL    HW130323   2.106   0.848   5.795
42772SOL    HW230324   2.030   0.959   5.865
42773SOL     OW30325   3.330   2.225   9.228
42773SOL    HW130326   3.334   2.134   9.259
42773SOL    HW230327   3.387   2.226   9.151
42774SOL     OW30328   6.956   8.600   2.705
42774SOL    HW130329   6.987   8.606   2.795
42774SOL    HW230330   6.978   8.511   2.677
42775SOL     OW30331   4.766   9.830   8.961
42775SOL    HW130332   4.808   9.780   8.891
42775SOL    HW230333   4.802   9.918   8.952
42776SOL     OW30334   2.514   7.826   3.820
42776SOL    HW130335   2.489   7.744   3.863
42776SOL    HW230336   2.470   7.823   3.735
42777SOL     OW30337   4.274   0.191   9.839
42777SOL    HW130338   4.248   0.259   9.900
42777SOL    HW230339   4.194   0.142   9.822
42778SOL     OW30340   1.794   0.024   7.686
42778SOL    HW130341   1.768  -0.020   7.604
42778SOL    HW230342   1.761   0.113   7.677
42779SOL     OW30343   2.730   8.688   4.754
42779SOL    HW130344   2.645   8.686   4.710
42779SOL    HW230345   2.723   8.622   4.823
42780SOL     OW30346   2.066   3.466   4.560
42780SOL    HW130347   2.105   3.396   4.508
42780SOL    HW230348   1.974   3.466   4.534
42781SOL     OW30349   2.674   1.614   5.692
42781SOL    HW130350   2.704   1.627   5.601
42781SOL    HW230351   2.588   1.656   5.695
42782SOL     OW30352   0.450   9.596   0.797
42782SOL    HW130353   0.403   9.669   0.837
42782SOL    HW230354   0.434   9.522   0.856
42783SOL     OW30355   9.220   8.293   1.236
42783SOL    HW130356   9.135   8.330   1.212
42783SOL    HW230357   9.237   8.327   1.323
42784SOL     OW30358  10.358   2.957   6.180
42784SOL    HW130359  10.421   2.935   6.248
42784SOL    HW230360  10.311   2.875   6.163
42785SOL     OW30361   8.259   1.302   8.847
42785SOL    HW130362   8.278   1.394   8.828
42785SOL    HW230363   8.341   1.256   8.828
42786SOL     OW30364   9.603  10.485   1.956
42786SOL    HW130365   9.556  10.568   1.957
42786SOL    HW230366   9.689  10.505   1.993
42787SOL     OW30367   8.088  10.805   8.638
42787SOL    HW130368   8.029  10.774   8.569
42787SOL    HW230369   8.047  10.884   8.672
42788SOL     OW30370   8.954   8.642   7.211
42788SOL    HW130371   8.890   8.608   7.148
42788SOL    HW230372   8.974   8.567   7.267
42789SOL     OW30373  10.412   2.866   8.680
42789SOL    HW130374  10.370   2.819   8.752
42789SOL    HW230375  10.374   2.953   8.683
42790SOL     OW30376   3.071   6.502   6.515
42790SOL    HW130377   3.156   6.527   6.478
42790SOL    HW230378   3.009   6.562   6.474
42791SOL     OW30379   6.329   6.711   5.066
42791SOL    HW130380   6.236   6.703   5.044
42791SOL    HW230381   6.341   6.653   5.141
42792SOL     OW30382  10.793   9.437   8.912
42792SOL    HW130383  10.844   9.511   8.880
42792SOL    HW230384  10.849   9.361   8.895
42793SOL     OW30385   3.723   8.867   7.035
42793SOL    HW130386   3.648   8.852   7.092
42793SOL    HW230387   3.692   8.928   6.968
42794SOL     OW30388   6.825   6.397   3.294
42794SOL    HW130389   6.801   6.315   3.251
42794SOL    HW230390   6.849   6.371   3.383
42795SOL     OW30391  10.211   5.648   1.123
42795SOL    HW130392  10.222   5.718   1.187
42795SOL    HW230393  10.247   5.570   1.166
42796SOL     OW30394   0.982   7.780   3.883
42796SOL    HW130395   1.006   7.791   3.975
42796SOL    HW230396   1.055   7.818   3.834
42797SOL     OW30397   3.425  10.181  10.335
42797SOL    HW130398   3.411  10.086  10.342
42797SOL    HW230399   3.452  10.194  10.244
42798SOL     OW30400   3.156   8.833   5.718
42798SOL    HW130401   3.213   8.837   5.795
42798SOL    HW230402   3.111   8.917   5.717
42799SOL     OW30403   9.297   7.487   7.845
42799SOL    HW130404   9.357   7.464   7.916
42799SOL    HW230405   9.257   7.569   7.873
42800SOL     OW30406   4.705   3.291   5.737
42800SOL    HW130407   4.656   3.281   5.655
42800SOL    HW230408   4.787   3.333   5.710
42801SOL     OW30409   7.593   0.524   2.365
42801SOL    HW130410   7.514   0.559   2.405
42801SOL    HW230411   7.571   0.512   2.272
42802SOL     OW30412   7.470  10.909   4.352
42802SOL    HW130413   7.520  10.986   4.325
42802SOL    HW230414   7.424  10.937   4.431
42803SOL     OW30415   1.249   2.168   8.651
42803SOL    HW130416   1.284   2.193   8.736
42803SOL    HW230417   1.161   2.205   8.649
42804SOL     OW30418   9.127   1.564   2.862
42804SOL    HW130419   9.085   1.649   2.852
42804SOL    HW230420   9.203   1.568   2.804
42805SOL     OW30421   8.468   1.673   3.791
42805SOL    HW130422   8.556   1.675   3.828
42805SOL    HW230423   8.462   1.587   3.749
42806SOL     OW30424   9.508   8.667   6.411
42806SOL    HW130425   9.490   8.710   6.327
42806SOL    HW230426   9.603   8.659   6.414
42807SOL     OW30427   0.209   5.929   3.324
42807SOL    HW130428   0.223   6.010   3.373
42807SOL    HW230429   0.254   5.943   3.240
42808SOL     OW30430   2.657   5.201   5.919
42808SOL    HW130431   2.667   5.244   6.004
42808SOL    HW230432   2.656   5.272   5.855
42809SOL     OW30433   4.864   3.758   6.168
42809SOL    HW130434   4.947   3.749   6.215
42809SOL    HW230435   4.890   3.776   6.077
42810SOL     OW30436  10.721   1.146   7.836
42810SOL    HW130437  10.756   1.092   7.765
42810SOL    HW230438  10.750   1.102   7.916
42811SOL     OW30439   6.044   2.071   0.905
42811SOL    HW130440   6.077   2.149   0.950
42811SOL    HW230441   5.971   2.103   0.852
42812SOL     OW30442   5.750   3.016   8.863
42812SOL    HW130443   5.742   3.038   8.955
42812SOL    HW230444   5.680   3.065   8.820
42813SOL     OW30445   0.379   1.747   9.611
42813SOL    HW130446   0.332   1.758   9.693
42813SOL    HW230447   0.389   1.835   9.576
42814SOL     OW30448   1.926  10.962   1.009
42814SOL    HW130449   1.837  10.995   1.000
42814SOL    HW230450   1.963  11.013   1.081
42815SOL     OW30451   3.337   3.581   7.260
42815SOL    HW130452   3.321   3.490   7.287
42815SOL    HW230453   3.250   3.621   7.257
42816SOL     OW30454  10.133   8.455   8.248
42816SOL    HW130455  10.104   8.448   8.157
42816SOL    HW230456  10.102   8.540   8.277
42817SOL     OW30457   9.934   6.165   5.289
42817SOL    HW130458   9.978   6.162   5.203
42817SOL    HW230459  10.001   6.136   5.351
42818SOL     OW30460   9.052   5.491   3.863
42818SOL    HW130461   9.007   5.569   3.831
42818SOL    HW230462   9.043   5.495   3.958
42819SOL     OW30463   2.449   0.902   5.624
42819SOL    HW130464   2.368   0.930   5.581
42819SOL    HW230465   2.516   0.961   5.590
42820SOL     OW30466   4.480   3.623   8.270
42820SOL    HW130467   4.509   3.534   8.251
42820SOL    HW230468   4.537   3.678   8.217
42821SOL     OW30469   0.272   0.295   9.853
42821SOL    HW130470   0.180   0.317   9.870
42821SOL    HW230471   0.267   0.218   9.795
42822SOL     OW30472  10.100   1.790   0.899
42822SOL    HW130473  10.076   1.699   0.916
42822SOL    HW230474  10.165   1.785   0.829
42823SOL     OW30475   1.117   9.562   7.409
42823SOL    HW130476   1.084   9.472   7.417
42823SOL    HW230477   1.038   9.616   7.400
42824SOL     OW30478   9.881   8.246   5.110
42824SOL    HW130479   9.852   8.283   5.193
42824SOL    HW230480   9.889   8.321   5.051
42825SOL     OW30481   4.619   1.342   7.667
42825SOL    HW130482   4.603   1.429   7.702
42825SOL    HW230483   4.676   1.356   7.591
42826SOL     OW30484   4.873   4.223   4.027
42826SOL    HW130485   4.787   4.181   4.035
42826SOL    HW230486   4.913   4.213   4.113
42827SOL     OW30487   0.110   4.814   7.239
42827SOL    HW130488   0.088   4.841   7.150
42827SOL    HW230489   0.192   4.858   7.258
42828SOL     OW30490   6.277   1.683   0.617
42828SOL    HW130491   6.348   1.679   0.680
42828SOL    HW230492   6.219   1.751   0.650
42829SOL     OW30493   9.523   9.925   5.826
42829SOL    HW130494   9.606   9.933   5.873
42829SOL    HW230495   9.484  10.012   5.830
42830SOL     OW30496   4.868   3.906   6.716
42830SOL    HW130497   4.910   3.833   6.763
42830SOL    HW230498   4.916   3.911   6.633
42831SOL     OW30499   5.234   0.557   0.568
42831SOL    HW130500   5.264   0.570   0.658
42831SOL    HW230501   5.295   0.492   0.531
42832SOL     OW30502   8.819   2.290   8.407
42832SOL    HW130503   8.775   2.308   8.490
42832SOL    HW230504   8.786   2.356   8.347
42833SOL     OW30505   8.369  10.105   8.899
42833SOL    HW130506   8.343  10.069   8.984
42833SOL    HW230507   8.336  10.041   8.835
42834SOL     OW30508   5.893   8.938   7.327
42834SOL    HW130509   5.937   8.938   7.241
42834SOL    HW230510   5.949   8.992   7.382
42835SOL     OW30511   5.111   5.311   9.293
42835SOL    HW130512   5.141   5.277   9.208
42835SOL    HW230513   5.051   5.244   9.325
42836SOL     OW30514   0.120  10.035   2.881
42836SOL    HW130515   0.074  10.101   2.828
42836SOL    HW230516   0.197  10.012   2.829
42837SOL     OW30517  10.858  10.500   9.358
42837SOL    HW130518  10.951  10.513   9.376
42837SOL    HW230519  10.813  10.555   9.422
42838SOL     OW30520   0.874   9.646   6.445
42838SOL    HW130521   0.968   9.636   6.459
42838SOL    HW230522   0.867   9.700   6.366
42839SOL     OW30523   1.314   9.415   8.443
42839SOL    HW130524   1.233   9.441   8.487
42839SOL    HW230525   1.287   9.348   8.380
42840SOL     OW30526   4.757   4.044   7.951
42840SOL    HW130527   4.795   4.070   7.867
42840SOL    HW230528   4.664   4.034   7.933
42841SOL     OW30529  10.728   4.305   5.821
42841SOL    HW130530  10.672   4.344   5.754
42841SOL    HW230531  10.670   4.248   5.871
42842SOL     OW30532  10.331   9.684   4.194
42842SOL    HW130533  10.336   9.609   4.133
42842SOL    HW230534  10.347   9.646   4.280
42843SOL     OW30535   0.702   2.559   6.655
42843SOL    HW130536   0.709   2.463   6.653
42843SOL    HW230537   0.623   2.578   6.605
42844SOL     OW30538   4.034   7.410   8.104
42844SOL    HW130539   4.054   7.359   8.182
42844SOL    HW230540   3.979   7.352   8.051
42845SOL     OW30541   3.904   0.711   9.572
42845SOL    HW130542   3.875   0.657   9.498
42845SOL    HW230543   3.924   0.647   9.641
42846SOL     OW30544   0.179   6.313  10.547
42846SOL    HW130545   0.204   6.262  10.469
42846SOL    HW230546   0.089   6.284  10.565
42847SOL     OW30547   0.785   9.467   6.223
42847SOL    HW130548   0.789   9.523   6.300
42847SOL    HW230549   0.783   9.378   6.258
42848SOL     OW30550   9.696   3.949  11.032
42848SOL    HW130551   9.622   3.990  10.987
42848SOL    HW230552   9.657   3.876  11.081
42849SOL     OW30553   2.392   0.437   8.070
42849SOL    HW130554   2.307   0.426   8.112
42849SOL    HW230555   2.438   0.355   8.088
42850SOL     OW30556   5.862   7.333   5.611
42850SOL    HW130557   5.911   7.275   5.552
42850SOL    HW230558   5.833   7.276   5.682
42851SOL     OW30559   8.679   6.243   0.481
42851SOL    HW130560   8.756   6.215   0.431
42851SOL    HW230561   8.681   6.338   0.476
42852SOL     OW30562   4.476   2.435   2.923
42852SOL    HW130563   4.420   2.358   2.935
42852SOL    HW230564   4.541   2.429   2.993
42853SOL     OW30565  10.505   5.521  10.481
42853SOL    HW130566  10.576   5.556  10.427
42853SOL    HW230567  10.550   5.472  10.550
42854SOL     OW30568   0.402   3.391   2.443
42854SOL    HW130569   0.377   3.450   2.372
42854SOL    HW230570   0.334   3.403   2.509
42855SOL     OW30571   3.421   8.269   8.155
42855SOL    HW130572   3.379   8.260   8.240
42855SOL    HW230573   3.351   8.250   8.092
42856SOL     OW30574   2.170   0.841   5.293
42856SOL    HW130575   2.204   0.751   5.290
42856SOL    HW230576   2.119   0.849   5.212
42857SOL     OW30577   4.370  10.578   8.455
42857SOL    HW130578   4.330  10.499   8.419
42857SOL    HW230579   4.297  10.639   8.467
42858SOL     OW30580   0.202   5.392   3.899
42858SOL    HW130581   0.235   5.478   3.875
42858SOL    HW230582   0.116   5.387   3.857
42859SOL     OW30583   7.584   9.673  10.645
42859SOL    HW130584   7.496   9.640  10.663
42859SOL    HW230585   7.601   9.647  10.554
42860SOL     OW30586   1.517   1.701   5.421
42860SOL    HW130587   1.425   1.700   5.447
42860SOL    HW230588   1.539   1.608   5.407
42861SOL     OW30589   5.776   8.813   1.925
42861SOL    HW130590   5.751   8.728   1.888
42861SOL    HW230591   5.799   8.866   1.848
42862SOL     OW30592   5.859   0.991   9.382
42862SOL    HW130593   5.855   0.971   9.475
42862SOL    HW230594   5.887   1.082   9.377
42863SOL     OW30595   0.708   7.914   7.377
42863SOL    HW130596   0.761   7.920   7.297
42863SOL    HW230597   0.634   7.971   7.361
42864SOL     OW30598   4.607   4.815   5.092
42864SOL    HW130599   4.675   4.881   5.078
42864SOL    HW230600   4.527   4.854   5.057
42865SOL     OW30601   5.464   5.125   1.664
42865SOL    HW130602   5.536   5.165   1.615
42865SOL    HW230603   5.428   5.196   1.716
42866SOL     OW30604   4.163   7.031   6.137
42866SOL    HW130605   4.244   6.981   6.123
42866SOL    HW230606   4.095   6.979   6.094
42867SOL     OW30607   5.273   4.954   0.383
42867SOL    HW130608   5.241   4.949   0.473
42867SOL    HW230609   5.202   4.995   0.335
42868SOL     OW30610   2.398  10.802   8.065
42868SOL    HW130611   2.322  10.847   8.028
42868SOL    HW230612   2.387  10.810   8.159
42869SOL     OW30613   7.801   6.296   7.785
42869SOL    HW130614   7.827   6.386   7.766
42869SOL    HW230615   7.849   6.273   7.864
42870SOL     OW30616   4.903   9.896   4.920
42870SOL    HW130617   4.850   9.923   4.845
42870SOL    HW230618   4.935   9.978   4.958
42871SOL     OW30619   0.900   9.959   3.797
42871SOL    HW130620   0.899  10.048   3.762
42871SOL    HW230621   0.868   9.905   3.724
42872SOL     OW30622  10.955   5.088   5.086
42872SOL    HW130623  11.037   5.138   5.085
42872SOL    HW230624  10.982   4.998   5.106
42873SOL     OW30625   0.638  10.562   6.034
42873SOL    HW130626   0.701  10.629   6.062
42873SOL    HW230627   0.575  10.557   6.105
42874SOL     OW30628   1.024   0.415   4.690
42874SOL    HW130629   1.013   0.444   4.780
42874SOL    HW230630   0.936   0.389   4.661
42875SOL     OW30631   8.410  10.422  10.190
42875SOL    HW130632   8.373  10.351  10.137
42875SOL    HW230633   8.334  10.470  10.223
42876SOL     OW30634   8.418  10.484   3.582
42876SOL    HW130635   8.324  10.494   3.595
42876SOL    HW230636   8.453  10.572   3.594
42877SOL     OW30637   4.848   5.747   7.772
42877SOL    HW130638   4.859   5.652   7.769
42877SOL    HW230639   4.755   5.761   7.754
42878SOL     OW30640  10.267   8.088   3.078
42878SOL    HW130641  10.177   8.121   3.080
42878SOL    HW230642  10.261   8.003   3.034
42879SOL     OW30643   1.317  10.238   8.142
42879SOL    HW130644   1.399  10.204   8.179
42879SOL    HW230645   1.344  10.280   8.060
42880SOL     OW30646   9.514   6.365  10.594
42880SOL    HW130647   9.578   6.301  10.626
42880SOL    HW230648   9.465   6.391  10.672
42881SOL     OW30649   3.210  10.587  10.484
42881SOL    HW130650   3.226  10.495  10.506
42881SOL    HW230651   3.193  10.629  10.568
42882SOL     OW30652   7.414   1.646   3.643
42882SOL    HW130653   7.348   1.651   3.574
42882SOL    HW230654   7.404   1.727   3.692
42883SOL     OW30655   2.665   9.899   8.355
42883SOL    HW130656   2.659   9.908   8.450
42883SOL    HW230657   2.718   9.973   8.327
42884SOL     OW30658   5.428   6.741   9.656
42884SOL    HW130659   5.474   6.661   9.684
42884SOL    HW230660   5.335   6.719   9.664
42885SOL     OW30661   5.914   0.138   6.873
42885SOL    HW130662   5.955   0.209   6.824
42885SOL    HW230663   5.986   0.099   6.923
42886SOL     OW30664   4.614   9.015   8.335
42886SOL    HW130665   4.647   9.077   8.399
42886SOL    HW230666   4.659   9.038   8.253
42887SOL     OW30667   1.318   9.117   6.308
42887SOL    HW130668   1.400   9.157   6.336
42887SOL    HW230669   1.310   9.141   6.215
42888SOL     OW30670  10.699   2.877   1.813
42888SOL    HW130671  10.778   2.899   1.764
42888SOL    HW230672  10.636   2.944   1.787
42889SOL     OW30673   4.351   1.063   0.147
42889SOL    HW130674   4.356   1.013   0.065
42889SOL    HW230675   4.390   1.148   0.127
42890SOL     OW30676   0.706   3.314   5.836
42890SOL    HW130677   0.718   3.327   5.742
42890SOL    HW230678   0.745   3.228   5.853
42891SOL     OW30679   4.356   2.888   9.239
42891SOL    HW130680   4.410   2.884   9.318
42891SOL    HW230681   4.275   2.930   9.267
42892SOL     OW30682   0.197   3.263   6.170
42892SOL    HW130683   0.216   3.353   6.196
42892SOL    HW230684   0.260   3.210   6.219
42893SOL     OW30685   0.548   4.949   9.199
42893SOL    HW130686   0.501   5.008   9.258
42893SOL    HW230687   0.610   4.903   9.255
42894SOL     OW30688   9.036   9.271   1.084
42894SOL    HW130689   8.979   9.243   1.155
42894SOL    HW230690   9.072   9.189   1.049
42895SOL     OW30691   4.434   9.240   7.799
42895SOL    HW130692   4.471   9.157   7.831
42895SOL    HW230693   4.359   9.256   7.856
42896SOL     OW30694   0.062   0.790   7.059
42896SOL    HW130695   0.147   0.823   7.088
42896SOL    HW230696   0.012   0.868   7.036
42897SOL     OW30697  10.844   7.955   8.250
42897SOL    HW130698  10.778   7.966   8.318
42897SOL    HW230699  10.878   7.866   8.263
42898SOL     OW30700   8.214   0.343   7.199
42898SOL    HW130701   8.213   0.249   7.216
42898SOL    HW230702   8.263   0.352   7.117
42899SOL     OW30703   4.492   1.701   6.130
42899SOL    HW130704   4.466   1.657   6.211
42899SOL    HW230705   4.455   1.789   6.137
42900SOL     OW30706   0.643   1.360   3.313
42900SOL    HW130707   0.716   1.308   3.347
42900SOL    HW230708   0.565   1.316   3.346
42901SOL     OW30709  10.230   0.372   9.138
42901SOL    HW130710  10.248   0.318   9.060
42901SOL    HW230711  10.267   0.322   9.210
42902SOL     OW30712  10.340   6.500   8.982
42902SOL    HW130713  10.434   6.518   8.982
42902SOL    HW230714  10.302   6.571   9.032
42903SOL     OW30715   4.305   5.511   3.076
42903SOL    HW130716   4.349   5.502   3.160
42903SOL    HW230717   4.246   5.585   3.087
42904SOL     OW30718   1.697   8.636   8.179
42904SOL    HW130719   1.638   8.667   8.247
42904SOL    HW230720   1.777   8.687   8.191
42905SOL     OW30721   1.223   5.486   4.845
42905SOL    HW130722   1.141   5.454   4.882
42905SOL    HW230723   1.198   5.561   4.791
42906SOL     OW30724   3.275   7.989   7.618
42906SOL    HW130725   3.334   7.954   7.550
42906SOL    HW230726   3.325   7.981   7.699
42907SOL     OW30727   3.118   1.679   7.887
42907SOL    HW130728   3.099   1.633   7.805
42907SOL    HW230729   3.044   1.738   7.899
42908SOL     OW30730   4.999   9.694   5.839
42908SOL    HW130731   5.042   9.732   5.915
42908SOL    HW230732   5.067   9.641   5.797
42909SOL     OW30733   6.978  10.929   5.613
42909SOL    HW130734   6.921  10.853   5.619
42909SOL    HW230735   7.047  10.902   5.552
42910SOL     OW30736  10.992   5.115   3.011
42910SOL    HW130737  10.971   5.156   3.094
42910SOL    HW230738  10.944   5.166   2.946
42911SOL     OW30739   7.865   3.763   9.130
42911SOL    HW130740   7.792   3.824   9.129
42911SOL    HW230741   7.839   3.693   9.069
42912SOL     OW30742   1.273   3.652  10.744
42912SOL    HW130743   1.285   3.619  10.833
42912SOL    HW230744   1.207   3.594  10.705
42913SOL     OW30745   3.242  10.640   4.499
42913SOL    HW130746   3.220  10.554   4.535
42913SOL    HW230747   3.164  10.666   4.451
42914SOL     OW30748   8.928  10.337   6.849
42914SOL    HW130749   8.855  10.305   6.901
42914SOL    HW230750   9.005  10.323   6.904
42915SOL     OW30751   1.718   3.058  10.627
42915SOL    HW130752   1.723   3.135  10.682
42915SOL    HW230753   1.668   2.994  10.678
42916SOL     OW30754   2.754   5.233   9.220
42916SOL    HW130755   2.730   5.298   9.154
42916SOL    HW230756   2.850   5.238   9.225
42917SOL     OW30757   5.173  10.280  10.679
42917SOL    HW130758   5.108  10.221  10.641
42917SOL    HW230759   5.222  10.225  10.740
42918SOL     OW30760   0.447   3.479   7.696
42918SOL    HW130761   0.521   3.422   7.718
42918SOL    HW230762   0.422   3.519   7.779
42919SOL     OW30763   7.197   3.412  10.782
42919SOL    HW130764   7.196   3.316  10.778
42919SOL    HW230765   7.290   3.435  10.773
42920SOL     OW30766   7.343   5.087   6.392
42920SOL    HW130767   7.366   5.176   6.365
42920SOL    HW230768   7.376   5.031   6.321
42921SOL     OW30769   3.926  -0.002   3.097
42921SOL    HW130770   3.898   0.072   3.044
42921SOL    HW230771   4.018  -0.015   3.073
42922SOL     OW30772   3.462  10.511   2.299
42922SOL    HW130773   3.493  10.453   2.368
42922SOL    HW230774   3.527  10.581   2.295
42923SOL     OW30775   6.575   7.231   7.410
42923SOL    HW130776   6.626   7.156   7.440
42923SOL    HW230777   6.553   7.209   7.319
42924SOL     OW30778   8.429  10.835   2.516
42924SOL    HW130779   8.521  10.828   2.542
42924SOL    HW230780   8.393  10.748   2.530
42925SOL     OW30781   9.835   1.028   9.702
42925SOL    HW130782   9.845   1.101   9.641
42925SOL    HW230783   9.867   0.952   9.653
42926SOL     OW30784   1.209   2.553   6.724
42926SOL    HW130785   1.178   2.593   6.805
42926SOL    HW230786   1.138   2.566   6.661
42927SOL     OW30787  11.020   2.563  10.670
42927SOL    HW130788  11.067   2.646  10.676
42927SOL    HW230789  11.089   2.497  10.662
42928SOL     OW30790   2.061   7.008   9.711
42928SOL    HW130791   2.025   7.039   9.628
42928SOL    HW230792   2.024   6.920   9.721
42929SOL     OW30793   4.894   7.813   6.218
42929SOL    HW130794   4.861   7.870   6.149
42929SOL    HW230795   4.817   7.789   6.268
42930SOL     OW30796   8.773   8.382   4.453
42930SOL    HW130797   8.850   8.412   4.404
42930SOL    HW230798   8.704   8.376   4.387
42931SOL     OW30799   1.889   9.377   5.751
42931SOL    HW130800   1.823   9.350   5.814
42931SOL    HW230801   1.926   9.457   5.787
42932SOL     OW30802   9.594   8.908   6.627
42932SOL    HW130803   9.622   8.823   6.662
42932SOL    HW230804   9.499   8.900   6.618
42933SOL     OW30805   0.637   2.783   8.372
42933SOL    HW130806   0.726   2.802   8.402
42933SOL    HW230807   0.581   2.802   8.447
42934SOL     OW30808   8.731   3.112   9.972
42934SOL    HW130809   8.712   3.185  10.030
42934SOL    HW230810   8.685   3.132   9.891
42935SOL     OW30811   0.672   7.164   4.931
42935SOL    HW130812   0.727   7.217   4.988
42935SOL    HW230813   0.590   7.154   4.979
42936SOL     OW30814  10.369   6.770   8.580
42936SOL    HW130815  10.351   6.804   8.492
42936SOL    HW230816  10.430   6.697   8.565
42937SOL     OW30817   5.181   3.190   0.582
42937SOL    HW130818   5.147   3.124   0.521
42937SOL    HW230819   5.263   3.152   0.614
42938SOL     OW30820   9.264   2.292   9.430
42938SOL    HW130821   9.285   2.238   9.354
42938SOL    HW230822   9.344   2.342   9.446
42939SOL     OW30823   3.809  10.493   9.692
42939SOL    HW130824   3.782  10.476   9.782
42939SOL    HW230825   3.742  10.451   9.638
42940SOL     OW30826   4.356   2.373   8.211
42940SOL    HW130827   4.308   2.293   8.189
42940SOL    HW230828   4.352   2.378   8.306
42941SOL     OW30829   9.924  11.026   0.665
42941SOL    HW130830   9.846  10.973   0.681
42941SOL    HW230831   9.916  11.054   0.573
42942SOL     OW30832   3.176   0.899   7.078
42942SOL    HW130833   3.179   0.976   7.135
42942SOL    HW230834   3.092   0.905   7.033
42943SOL     OW30835   7.011   8.464   5.704
42943SOL    HW130836   7.089   8.426   5.744
42943SOL    HW230837   6.973   8.392   5.653
42944SOL     OW30838   3.157  10.134   4.908
42944SOL    HW130839   3.095  10.080   4.957
42944SOL    HW230840   3.105  10.173   4.838
42945SOL     OW30841   5.085   9.831   1.032
42945SOL    HW130842   5.070   9.921   1.004
42945SOL    HW230843   5.172   9.832   1.072
42946SOL     OW30844   2.676   1.826   6.809
42946SOL    HW130845   2.587   1.805   6.782
42946SOL    HW230846   2.711   1.743   6.841
42947SOL     OW30847   6.970   8.472   5.357
42947SOL    HW130848   6.914   8.459   5.433
42947SOL    HW230849   7.044   8.523   5.390
42948SOL     OW30850  10.496   9.589   1.562
42948SOL    HW130851  10.430   9.658   1.564
42948SOL    HW230852  10.464   9.523   1.623
42949SOL     OW30853   4.202  10.596   0.190
42949SOL    HW130854   4.254  10.649   0.251
42949SOL    HW230855   4.266  10.538   0.149
42950SOL     OW30856   1.290   4.903   9.647
42950SOL    HW130857   1.345   4.926   9.721
42950SOL    HW230858   1.202   4.893   9.684
42951SOL     OW30859   6.184   4.488   1.391
42951SOL    HW130860   6.199   4.482   1.485
42951SOL    HW230861   6.265   4.526   1.356
42952SOL     OW30862   0.069   5.797   9.858
42952SOL    HW130863   0.057   5.767   9.768
42952SOL    HW230864   0.064   5.892   9.852
42953SOL     OW30865  10.228   0.228   6.914
42953SOL    HW130866  10.237   0.309   6.964
42953SOL    HW230867  10.190   0.165   6.975
42954SOL     OW30868   0.154   8.220   1.908
42954SOL    HW130869   0.163   8.306   1.949
42954SOL    HW230870   0.079   8.180   1.952
42955SOL     OW30871   9.884   5.870   9.114
42955SOL    HW130872   9.942   5.797   9.092
42955SOL    HW230873   9.813   5.864   9.050
42956SOL     OW30874   2.611   7.546   6.618
42956SOL    HW130875   2.631   7.625   6.568
42956SOL    HW230876   2.696   7.516   6.651
42957SOL     OW30877   9.274   7.391  10.929
42957SOL    HW130878   9.213   7.446  10.879
42957SOL    HW230879   9.249   7.403  11.020
42958SOL     OW30880   8.722   8.745   8.970
42958SOL    HW130881   8.763   8.660   8.986
42958SOL    HW230882   8.628   8.729   8.980
42959SOL     OW30883   9.924   8.954   1.187
42959SOL    HW130884   9.976   8.876   1.168
42959SOL    HW230885   9.922   9.002   1.104
42960SOL     OW30886   0.178   8.852   2.451
42960SOL    HW130887   0.237   8.823   2.520
42960SOL    HW230888   0.092   8.857   2.493
42961SOL     OW30889   6.819   8.434   0.986
42961SOL    HW130890   6.771   8.373   0.930
42961SOL    HW230891   6.808   8.519   0.944
42962SOL     OW30892   5.755   2.099   2.889
42962SOL    HW130893   5.700   2.168   2.852
42962SOL    HW230894   5.710   2.017   2.867
42963SOL     OW30895   2.275   0.642   1.362
42963SOL    HW130896   2.201   0.658   1.420
42963SOL    HW230897   2.257   0.696   1.285
42964SOL     OW30898   7.908  10.147   9.522
42964SOL    HW130899   7.816  10.174   9.518
42964SOL    HW230900   7.937  10.173   9.609
42965SOL     OW30901   0.285   9.101   8.068
42965SOL    HW130902   0.330   9.019   8.086
42965SOL    HW230903   0.325   9.133   7.987
42966SOL     OW30904   9.114   9.097   8.925
42966SOL    HW130905   9.062   9.157   8.871
42966SOL    HW230906   9.052   9.030   8.953
42967SOL     OW30907   8.524  10.027  10.182
42967SOL    HW130908   8.509   9.962  10.113
42967SOL    HW230909   8.439  10.038  10.223
42968SOL     OW30910   1.112   0.358   5.865
42968SOL    HW130911   1.129   0.283   5.807
42968SOL    HW230912   1.191   0.412   5.858
42969SOL     OW30913   6.766   2.210   1.928
42969SOL    HW130914   6.748   2.187   2.019
42969SOL    HW230915   6.698   2.165   1.878
42970SOL     OW30916  10.498  10.075   9.565
42970SOL    HW130917  10.576  10.058   9.512
42970SOL    HW230918  10.488  10.170   9.563
42971SOL     OW30919   0.248  11.043   3.547
42971SOL    HW130920   0.268  10.950   3.539
42971SOL    HW230921   0.153  11.049   3.534
42972SOL     OW30922   1.378   8.775   1.523
42972SOL    HW130923   1.403   8.852   1.472
42972SOL    HW230924   1.456   8.719   1.522
42973SOL     OW30925  10.375  10.468   0.551
42973SOL    HW130926  10.390  10.536   0.485
42973SOL    HW230927  10.311  10.410   0.511
42974SOL     OW30928   0.531   1.834   6.920
42974SOL    HW130929   0.537   1.740   6.899
42974SOL    HW230930   0.438   1.855   6.908
42975SOL     OW30931   0.126   2.756  10.409
42975SOL    HW130932   0.189   2.814  10.367
42975SOL    HW230933   0.166   2.733  10.492
42976SOL     OW30934   4.831   1.999   5.896
42976SOL    HW130935   4.786   2.083   5.886
42976SOL    HW230936   4.898   1.999   5.827
42977SOL     OW30937  10.045   3.277   9.460
42977SOL    HW130938  10.073   3.241   9.375
42977SOL    HW230939   9.951   3.259   9.463
42978SOL     OW30940   2.937   4.803   3.093
42978SOL    HW130941   2.897   4.779   3.176
42978SOL    HW230942   2.999   4.732   3.074
42979SOL     OW30943   6.276   5.486   0.009
42979SOL    HW130944   6.265   5.496  -0.085
42979SOL    HW230945   6.198   5.438   0.038
42980SOL     OW30946  10.351   1.486   7.012
42980SOL    HW130947  10.284   1.440   7.062
42980SOL    HW230948  10.431   1.435   7.026
42981SOL     OW30949   9.986   3.457   2.926
42981SOL    HW130950   9.954   3.542   2.897
42981SOL    HW230951  10.028   3.419   2.848
42982SOL     OW30952   9.126   6.858  10.590
42982SOL    HW130953   9.166   6.847  10.676
42982SOL    HW230954   9.200   6.852  10.529
42983SOL     OW30955   0.854   5.555   5.525
42983SOL    HW130956   0.948   5.556   5.544
42983SOL    HW230957   0.847   5.513   5.439
42984SOL     OW30958   9.884   6.934   2.731
42984SOL    HW130959   9.822   6.864   2.751
42984SOL    HW230960   9.881   6.991   2.807
42985SOL     OW30961  10.860   0.703   1.463
42985SOL    HW130962  10.955   0.715   1.455
42985SOL    HW230963  10.840   0.634   1.400
42986SOL     OW30964  10.519   0.648   8.243
42986SOL    HW130965  10.468   0.728   8.229
42986SOL    HW230966  10.582   0.671   8.311
42987SOL     OW30967   9.702   6.524   6.167
42987SOL    HW130968   9.657   6.506   6.084
42987SOL    HW230969   9.632   6.546   6.228
42988SOL     OW30970   9.056   5.132   6.112
42988SOL    HW130971   9.125   5.066   6.121
42988SOL    HW230972   8.979   5.091   6.152
42989SOL     OW30973   7.511   7.819   9.855
42989SOL    HW130974   7.480   7.908   9.869
42989SOL    HW230975   7.433   7.765   9.864
42990SOL     OW30976   2.549   9.237   1.211
42990SOL    HW130977   2.607   9.310   1.232
42990SOL    HW230978   2.608   9.165   1.188
42991SOL     OW30979   6.747   0.001   1.742
42991SOL    HW130980   6.813   0.056   1.784
42991SOL    HW230981   6.757   0.019   1.648
42992SOL     OW30982   0.322   0.712  10.842
42992SOL    HW130983   0.408   0.714  10.882
42992SOL    HW230984   0.338   0.729  10.749
42993SOL     OW30985  11.002   6.766   1.106
42993SOL    HW130986  10.988   6.686   1.157
42993SOL    HW230987  11.069   6.814   1.155
42994SOL     OW30988   3.307   3.967   3.238
42994SOL    HW130989   3.348   4.052   3.226
42994SOL    HW230990   3.319   3.923   3.154
42995SOL     OW30991   8.076   7.686   7.318
42995SOL    HW130992   7.993   7.653   7.351
42995SOL    HW230993   8.129   7.702   7.396
42996SOL     OW30994   6.237   6.449   5.679
42996SOL    HW130995   6.302   6.438   5.748
42996SOL    HW230996   6.288   6.444   5.598
42997SOL     OW30997   5.633   4.578   8.971
42997SOL    HW130998   5.658   4.548   8.883
42997SOL    HW230999   5.663   4.668   8.975
42998SOL     OW31000   9.737   8.831   7.257
42998SOL    HW131001   9.711   8.831   7.349
42998SOL    HW231002   9.672   8.886   7.213
42999SOL     OW31003   2.043   4.473   8.792
42999SOL    HW131004   2.043   4.555   8.743
42999SOL    HW231005   2.121   4.478   8.848
43000SOL     OW31006   8.748   9.101   0.776
43000SOL    HW131007   8.673   9.096   0.717
43000SOL    HW231008   8.720   9.161   0.845
43001SOL     OW31009   5.007   8.157   1.576
43001SOL    HW131010   4.989   8.251   1.571
43001SOL    HW231011   4.934   8.121   1.626
43002SOL     OW31012   0.405   3.719   7.156
43002SOL    HW131013   0.328   3.772   7.136
43002SOL    HW231014   0.444   3.700   7.070
43003SOL     OW31015   7.647   5.179  11.090
43003SOL    HW131016   7.571   5.183  11.032
43003SOL    HW231017   7.636   5.253  11.149
43004SOL     OW31018   2.068   8.767   5.062
43004SOL    HW131019   2.153   8.810   5.076
43004SOL    HW231020   2.084   8.675   5.085
43005SOL     OW31021   1.051  10.309   3.422
43005SOL    HW131022   1.127  10.365   3.406
43005SOL    HW231023   0.975  10.363   3.400
43006SOL     OW31024   4.308   8.566   7.263
43006SOL    HW131025   4.290   8.505   7.191
43006SOL    HW231026   4.402   8.583   7.257
43007SOL     OW31027   1.909   4.513   2.966
43007SOL    HW131028   1.904   4.603   2.996
43007SOL    HW231029   2.000   4.487   2.982
43008SOL     OW31030   6.694   2.025   8.451
43008SOL    HW131031   6.662   2.108   8.484
43008SOL    HW231032   6.732   1.981   8.527
43009SOL     OW31033   1.447   6.027   4.072
43009SOL    HW131034   1.532   5.994   4.101
43009SOL    HW231035   1.461   6.121   4.059
43010SOL     OW31036   3.583  10.311   8.694
43010SOL    HW131037   3.530  10.262   8.631
43010SOL    HW231038   3.577  10.402   8.664
43011SOL     OW31039   1.070   9.427   5.896
43011SOL    HW131040   1.010   9.501   5.905
43011SOL    HW231041   1.016   9.350   5.917
43012SOL     OW31042   1.205   5.763   2.429
43012SOL    HW131043   1.295   5.795   2.418
43012SOL    HW231044   1.207   5.714   2.511
43013SOL     OW31045   1.182   3.203   3.921
43013SOL    HW131046   1.123   3.242   3.856
43013SOL    HW231047   1.137   3.123   3.950
43014SOL     OW31048   6.594   7.814   9.238
43014SOL    HW131049   6.626   7.737   9.286
43014SOL    HW231050   6.673   7.866   9.221
43015SOL     OW31051   1.631   0.556   1.719
43015SOL    HW131052   1.713   0.603   1.704
43015SOL    HW231053   1.658   0.466   1.739
43016SOL     OW31054   6.395   3.604  10.260
43016SOL    HW131055   6.375   3.568  10.346
43016SOL    HW231056   6.467   3.665  10.275
43017SOL     OW31057   8.139   6.138   0.572
43017SOL    HW131058   8.132   6.224   0.613
43017SOL    HW231059   8.064   6.089   0.606
43018SOL     OW31060   2.492   0.202   8.099
43018SOL    HW131061   2.423   0.147   8.061
43018SOL    HW231062   2.573   0.157   8.074
43019SOL     OW31063   3.711   7.054   0.577
43019SOL    HW131064   3.706   7.149   0.574
43019SOL    HW231065   3.668   7.030   0.659
43020SOL     OW31066   0.960   2.931   7.687
43020SOL    HW131067   0.991   2.846   7.718
43020SOL    HW231068   0.998   2.940   7.599
43021SOL     OW31069   8.667   9.646   5.894
43021SOL    HW131070   8.731   9.691   5.949
43021SOL    HW231071   8.678   9.553   5.915
43022SOL     OW31072   4.679   7.515  10.880
43022SOL    HW131073   4.720   7.513  10.966
43022SOL    HW231074   4.611   7.582  10.887
43023SOL     OW31075  10.183   1.716   6.113
43023SOL    HW131076  10.161   1.749   6.199
43023SOL    HW231077  10.221   1.791   6.067
43024SOL     OW31078   9.994   4.829   5.518
43024SOL    HW131079  10.032   4.910   5.485
43024SOL    HW231080   9.950   4.790   5.442
43025SOL     OW31081   2.376   9.747  10.078
43025SOL    HW131082   2.388   9.653  10.061
43025SOL    HW231083   2.423   9.763  10.160
43026SOL     OW31084   0.184   8.912   1.343
43026SOL    HW131085   0.181   9.004   1.318
43026SOL    HW231086   0.108   8.873   1.299
43027SOL     OW31087   8.386   4.672   7.087
43027SOL    HW131088   8.450   4.605   7.112
43027SOL    HW231089   8.331   4.682   7.164
43028SOL     OW31090   9.311   5.239   8.224
43028SOL    HW131091   9.252   5.166   8.243
43028SOL    HW231092   9.257   5.317   8.233
43029SOL     OW31093   8.282  10.893   6.967
43029SOL    HW131094   8.225  10.959   6.928
43029SOL    HW231095   8.226  10.846   7.029
43030SOL     OW31096   9.960  10.291   7.024
43030SOL    HW131097   9.987  10.353   7.091
43030SOL    HW231098  10.022  10.218   7.032
43031SOL     OW31099   1.409   8.142   5.279
43031SOL    HW131100   1.330   8.195   5.275
43031SOL    HW231101   1.442   8.154   5.368
43032SOL     OW31102   1.569   9.474  10.430
43032SOL    HW131103   1.637   9.416  10.395
43032SOL    HW231104   1.487   9.429  10.411
43033SOL     OW31105  10.534   6.196   0.987
43033SOL    HW131106  10.491   6.114   1.012
43033SOL    HW231107  10.585   6.221   1.064
43034SOL     OW31108   3.439   9.478   6.395
43034SOL    HW131109   3.397   9.500   6.312
43034SOL    HW231110   3.532   9.471   6.373
43035SOL     OW31111   3.014   5.232   8.909
43035SOL    HW131112   3.101   5.200   8.883
43035SOL    HW231113   3.031   5.315   8.953
43036SOL     OW31114  10.331   4.942   2.327
43036SOL    HW131115  10.311   5.018   2.273
43036SOL    HW231116  10.373   4.880   2.266
43037SOL     OW31117   0.320   2.448   4.558
43037SOL    HW131118   0.406   2.430   4.521
43037SOL    HW231119   0.333   2.525   4.613
43038SOL     OW31120   1.889   4.777  10.451
43038SOL    HW131121   1.977   4.815  10.448
43038SOL    HW231122   1.843   4.828  10.518
43039SOL     OW31123   8.075   6.153  10.426
43039SOL    HW131124   8.158   6.191  10.454
43039SOL    HW231125   8.058   6.083  10.489
43040SOL     OW31126  10.506   4.926   5.243
43040SOL    HW131127  10.562   4.887   5.310
43040SOL    HW231128  10.508   5.020   5.261
43041SOL     OW31129   3.319   6.822   6.264
43041SOL    HW131130   3.339   6.846   6.354
43041SOL    HW231131   3.251   6.884   6.237
43042SOL     OW31132   7.594  10.216   7.392
43042SOL    HW131133   7.614  10.291   7.337
43042SOL    HW231134   7.521  10.245   7.447
43043SOL     OW31135   9.945  10.843   4.740
43043SOL    HW131136   9.868  10.787   4.752
43043SOL    HW231137  10.020  10.785   4.755
43044SOL     OW31138   1.952   8.004   7.901
43044SOL    HW131139   2.029   8.043   7.942
43044SOL    HW231140   1.973   8.003   7.807
43045SOL     OW31141   2.012  10.513   6.957
43045SOL    HW131142   1.920  10.488   6.950
43045SOL    HW231143   2.037  10.487   7.045
43046SOL     OW31144   8.115   3.073   1.206
43046SOL    HW131145   8.077   3.160   1.214
43046SOL    HW231146   8.045   3.019   1.170
43047SOL     OW31147   1.922  10.556   4.182
43047SOL    HW131148   1.953  10.641   4.214
43047SOL    HW231149   1.964  10.546   4.096
43048SOL     OW31150   0.784   1.513   7.676
43048SOL    HW131151   0.782   1.599   7.718
43048SOL    HW231152   0.832   1.457   7.737
43049SOL     OW31153   5.491   3.281   1.344
43049SOL    HW131154   5.483   3.188   1.322
43049SOL    HW231155   5.528   3.321   1.265
43050SOL     OW31156   1.533  10.349   0.472
43050SOL    HW131157   1.512  10.256   0.482
43050SOL    HW231158   1.622  10.350   0.436
43051SOL     OW31159  10.629   3.453   8.159
43051SOL    HW131160  10.706   3.427   8.210
43051SOL    HW231161  10.556   3.447   8.220
43052SOL     OW31162  10.267   1.883   4.057
43052SOL    HW131163  10.247   1.851   4.145
43052SOL    HW231164  10.363   1.888   4.054
43053SOL     OW31165   7.046   4.529   6.344
43053SOL    HW131166   7.031   4.580   6.423
43053SOL    HW231167   7.070   4.594   6.278
43054SOL     OW31168   2.429   1.646   9.580
43054SOL    HW131169   2.474   1.633   9.496
43054SOL    HW231170   2.468   1.725   9.616
43055SOL     OW31171   3.515   3.213   5.010
43055SOL    HW131172   3.428   3.249   5.027
43055SOL    HW231173   3.538   3.166   5.090
43056SOL     OW31174   0.929   4.708   0.444
43056SOL    HW131175   0.873   4.760   0.502
43056SOL    HW231176   0.979   4.773   0.394
43057SOL     OW31177   9.304   5.357   6.799
43057SOL    HW131178   9.329   5.311   6.879
43057SOL    HW231179   9.380   5.412   6.778
43058SOL     OW31180   7.699   7.807   7.930
43058SOL    HW131181   7.742   7.892   7.930
43058SOL    HW231182   7.606   7.827   7.917
43059SOL     OW31183   1.524   9.610   4.204
43059SOL    HW131184   1.429   9.617   4.214
43059SOL    HW231185   1.537   9.525   4.161
43060SOL     OW31186  10.181  10.121   7.183
43060SOL    HW131187  10.160  10.039   7.138
43060SOL    HW231188  10.100  10.146   7.226
43061SOL     OW31189   6.113  10.471   3.793
43061SOL    HW131190   6.155  10.551   3.824
43061SOL    HW231191   6.184  10.421   3.752
43062SOL     OW31192  10.010   9.562   7.535
43062SOL    HW131193   9.928   9.582   7.491
43062SOL    HW231194  10.005   9.609   7.618
43063SOL     OW31195   1.208   0.050   8.034
43063SOL    HW131196   1.290   0.019   8.072
43063SOL    HW231197   1.149   0.059   8.109
43064SOL     OW31198   4.804  10.843  10.048
43064SOL    HW131199   4.775  10.924  10.005
43064SOL    HW231200   4.768  10.848  10.136
43065SOL     OW31201  10.103   3.342  10.079
43065SOL    HW131202  10.014   3.341  10.115
43065SOL    HW231203  10.107   3.422  10.027
43066SOL     OW31204   8.998   1.247   7.242
43066SOL    HW131205   8.925   1.284   7.192
43066SOL    HW231206   9.028   1.173   7.188
43067SOL     OW31207  10.528   5.857  10.628
43067SOL    HW131208  10.577   5.838  10.548
43067SOL    HW231209  10.477   5.935  10.607
43068SOL     OW31210   0.271   8.145   7.066
43068SOL    HW131211   0.276   8.234   7.033
43068SOL    HW231212   0.194   8.144   7.123
43069SOL     OW31213  10.150   5.657   8.748
43069SOL    HW131214  10.125   5.662   8.840
43069SOL    HW231215  10.075   5.617   8.704
43070SOL     OW31216   8.194   3.865   7.100
43070SOL    HW131217   8.148   3.893   7.021
43070SOL    HW231218   8.266   3.811   7.068
43071SOL     OW31219   7.678   2.780   0.288
43071SOL    HW131220   7.656   2.745   0.201
43071SOL    HW231221   7.667   2.705   0.347
43072SOL     OW31222   6.722   7.788   8.160
43072SOL    HW131223   6.742   7.876   8.190
43072SOL    HW231224   6.787   7.733   8.204
43073SOL     OW31225  10.963   6.934   8.795
43073SOL    HW131226  11.048   6.894   8.813
43073SOL    HW231227  10.966   6.955   8.701
43074SOL     OW31228   1.972   9.919  10.907
43074SOL    HW131229   2.040   9.851  10.913
43074SOL    HW231230   1.965   9.937  10.813
43075SOL     OW31231   9.706   1.214   0.070
43075SOL    HW131232   9.734   1.181  -0.015
43075SOL    HW231233   9.621   1.255   0.054
43076SOL     OW31234   3.830   5.966   2.638
43076SOL    HW131235   3.867   6.041   2.591
43076SOL    HW231236   3.906   5.920   2.673
43077SOL     OW31237   3.020   8.779   2.336
43077SOL    HW131238   3.044   8.693   2.371
43077SOL    HW231239   3.084   8.795   2.266
43078SOL     OW31240   7.013   9.807   3.732
43078SOL    HW131241   6.927   9.770   3.715
43078SOL    HW231242   7.003   9.901   3.717
43079SOL     OW31243   5.566   5.773   4.413
43079SOL    HW131244   5.545   5.693   4.461
43079SOL    HW231245   5.521   5.763   4.329
43080SOL     OW31246   2.716   4.058   6.513
43080SOL    HW131247   2.729   3.987   6.576
43080SOL    HW231248   2.768   4.032   6.437
43081SOL     OW31249   0.163   9.590   0.500
43081SOL    HW131250   0.253   9.577   0.529
43081SOL    HW231251   0.133   9.667   0.547
43082SOL     OW31252   5.854   1.693   7.128
43082SOL    HW131253   5.786   1.626   7.121
43082SOL    HW231254   5.813   1.764   7.176
43083SOL     OW31255   1.266   7.710   2.640
43083SOL    HW131256   1.333   7.727   2.574
43083SOL    HW231257   1.220   7.632   2.608
43084SOL     OW31258   6.016   6.492   2.791
43084SOL    HW131259   6.078   6.428   2.826
43084SOL    HW231260   5.963   6.518   2.866
43085SOL     OW31261   3.272   0.520   0.511
43085SOL    HW131262   3.278   0.599   0.563
43085SOL    HW231263   3.360   0.508   0.476
43086SOL     OW31264   2.806   5.195   5.623
43086SOL    HW131265   2.821   5.289   5.615
43086SOL    HW231266   2.893   5.158   5.639
43087SOL     OW31267   7.066   8.474   4.903
43087SOL    HW131268   7.017   8.549   4.870
43087SOL    HW231269   7.001   8.419   4.946
43088SOL     OW31270   9.735  10.074   9.666
43088SOL    HW131271   9.786  10.028   9.598
43088SOL    HW231272   9.793  10.076   9.742
43089SOL     OW31273   1.420   5.753   9.241
43089SOL    HW131274   1.514   5.773   9.240
43089SOL    HW231275   1.392   5.766   9.150
43090SOL     OW31276   3.327   4.731   0.681
43090SOL    HW131277   3.275   4.656   0.711
43090SOL    HW231278   3.418   4.700   0.684
43091SOL     OW31279   0.209   5.472   4.678
43091SOL    HW131280   0.256   5.550   4.704
43091SOL    HW231281   0.192   5.484   4.584
43092SOL     OW31282  10.357   4.675   7.057
43092SOL    HW131283  10.424   4.697   7.121
43092SOL    HW231284  10.351   4.579   7.061
43093SOL     OW31285   0.512   7.424  10.272
43093SOL    HW131286   0.555   7.489  10.216
43093SOL    HW231287   0.563   7.424  10.353
43094SOL     OW31288   0.175   6.403   2.037
43094SOL    HW131289   0.099   6.400   1.978
43094SOL    HW231290   0.136   6.413   2.124
43095SOL     OW31291  10.932   7.884   5.515
43095SOL    HW131292  10.991   7.837   5.574
43095SOL    HW231293  10.908   7.963   5.563
43096SOL     OW31294   8.517   7.088   7.977
43096SOL    HW131295   8.512   7.180   8.000
43096SOL    HW231296   8.571   7.086   7.898
43097SOL     OW31297   8.715   1.615   7.145
43097SOL    HW131298   8.707   1.651   7.233
43097SOL    HW231299   8.672   1.679   7.089
43098SOL     OW31300   0.229  10.295   8.885
43098SOL    HW131301   0.293  10.295   8.813
43098SOL    HW231302   0.144  10.284   8.841
43099SOL     OW31303   0.202  10.917   8.901
43099SOL    HW131304   0.138  10.946   8.966
43099SOL    HW231305   0.272  10.982   8.905
43100SOL     OW31306   0.164   4.204   4.425
43100SOL    HW131307   0.110   4.159   4.360
43100SOL    HW231308   0.204   4.276   4.377
43101SOL     OW31309   0.089   2.334   1.318
43101SOL    HW131310   0.025   2.405   1.319
43101SOL    HW231311   0.066   2.282   1.241
43102SOL     OW31312   5.533   8.963   4.824
43102SOL    HW131313   5.548   9.001   4.910
43102SOL    HW231314   5.508   8.872   4.841
43103SOL     OW31315   7.188  10.056   3.664
43103SOL    HW131316   7.234   9.995   3.722
43103SOL    HW231317   7.230  10.043   3.578
43104SOL     OW31318   3.265   6.890   6.543
43104SOL    HW131319   3.172   6.909   6.553
43104SOL    HW231320   3.288   6.838   6.620
43105SOL     OW31321   9.310   9.781   0.655
43105SOL    HW131322   9.234   9.801   0.710
43105SOL    HW231323   9.352   9.706   0.698
43106SOL     OW31324   1.723   7.369   9.082
43106SOL    HW131325   1.668   7.395   9.008
43106SOL    HW231326   1.779   7.445   9.098
43107SOL     OW31327   3.446   9.783   0.786
43107SOL    HW131328   3.437   9.799   0.692
43107SOL    HW231329   3.409   9.861   0.827
43108SOL     OW31330   8.181   8.271   5.485
43108SOL    HW131331   8.262   8.240   5.444
43108SOL    HW231332   8.121   8.197   5.476
43109SOL     OW31333  10.770   2.992  10.640
43109SOL    HW131334  10.830   3.020  10.709
43109SOL    HW231335  10.738   2.906  10.669
43110SOL     OW31336  10.108   9.847   4.187
43110SOL    HW131337  10.174   9.777   4.186
43110SOL    HW231338  10.030   9.805   4.224
43111SOL     OW31339   1.211   8.513   3.915
43111SOL    HW131340   1.225   8.467   3.832
43111SOL    HW231341   1.154   8.586   3.892
43112SOL     OW31342   8.720   8.973  10.085
43112SOL    HW131343   8.685   9.060  10.069
43112SOL    HW231344   8.653   8.914  10.051
43113SOL     OW31345   9.480   8.389   8.322
43113SOL    HW131346   9.543   8.356   8.385
43113SOL    HW231347   9.514   8.361   8.237
43114SOL     OW31348   2.553   5.202   2.881
43114SOL    HW131349   2.459   5.188   2.876
43114SOL    HW231350   2.563   5.275   2.942
43115SOL     OW31351  11.029  10.638  11.101
43115SOL    HW131352  11.104  10.622  11.044
43115SOL    HW231353  10.976  10.702  11.053
43116SOL     OW31354   9.748   5.372   5.365
43116SOL    HW131355   9.741   5.276   5.370
43116SOL    HW231356   9.673   5.404   5.414
43117SOL     OW31357   7.954   7.255   5.653
43117SOL    HW131358   7.993   7.268   5.739
43117SOL    HW231359   7.863   7.283   5.663
43118SOL     OW31360   0.161   9.080   6.062
43118SOL    HW131361   0.133   9.006   6.117
43118SOL    HW231362   0.241   9.049   6.020
43119SOL     OW31363   8.754   7.368   9.413
43119SOL    HW131364   8.661   7.371   9.436
43119SOL    HW231365   8.755   7.341   9.321
43120SOL     OW31366   2.640   3.709   9.793
43120SOL    HW131367   2.727   3.670   9.783
43120SOL    HW231368   2.633   3.771   9.720
43121SOL     OW31369   7.032  10.858   0.970
43121SOL    HW131370   6.944  10.856   1.007
43121SOL    HW231371   7.041  10.775   0.924
43122SOL     OW31372   1.928  10.500   5.319
43122SOL    HW131373   2.016  10.523   5.289
43122SOL    HW231374   1.874  10.504   5.240
43123SOL     OW31375   6.566   8.900   6.579
43123SOL    HW131376   6.640   8.850   6.544
43123SOL    HW231377   6.594   8.991   6.573
43124SOL     OW31378  10.209   1.459   3.988
43124SOL    HW131379  10.227   1.538   3.937
43124SOL    HW231380  10.201   1.490   4.078
43125SOL     OW31381   9.481   9.467   3.099
43125SOL    HW131382   9.510   9.558   3.105
43125SOL    HW231383   9.441   9.449   3.184
43126SOL     OW31384  10.967   9.203   5.229
43126SOL    HW131385  10.890   9.151   5.251
43126SOL    HW231386  10.960   9.218   5.134
43127SOL     OW31387   0.368   0.944   1.945
43127SOL    HW131388   0.359   0.899   2.029
43127SOL    HW231389   0.306   1.017   1.950
43128SOL     OW31390   3.285   0.861   8.466
43128SOL    HW131391   3.299   0.892   8.376
43128SOL    HW231392   3.251   0.772   8.455
43129SOL     OW31393   5.854   9.620   4.631
43129SOL    HW131394   5.846   9.534   4.589
43129SOL    HW231395   5.905   9.672   4.569
43130SOL     OW31396   9.965   6.823   2.244
43130SOL    HW131397   9.982   6.880   2.169
43130SOL    HW231398   9.880   6.851   2.276
43131SOL     OW31399   0.872  10.649   3.592
43131SOL    HW131400   0.863  10.735   3.633
43131SOL    HW231401   0.849  10.587   3.661
43132SOL     OW31402   2.786  11.052  10.948
43132SOL    HW131403   2.832  11.135  10.960
43132SOL    HW231404   2.791  11.009  11.033
43133SOL     OW31405   7.668   9.341   2.333
43133SOL    HW131406   7.704   9.410   2.389
43133SOL    HW231407   7.722   9.264   2.352
43134SOL     OW31408   8.949   0.006   5.632
43134SOL    HW131409   9.037  -0.027   5.653
43134SOL    HW231410   8.948   0.012   5.536
43135SOL     OW31411   2.300   3.314   8.107
43135SOL    HW131412   2.213   3.298   8.070
43135SOL    HW231413   2.335   3.386   8.055
43136SOL     OW31414   3.157   9.258   3.583
43136SOL    HW131415   3.081   9.201   3.594
43136SOL    HW231416   3.213   9.211   3.521
43137SOL     OW31417   8.269   1.874   7.652
43137SOL    HW131418   8.239   1.793   7.694
43137SOL    HW231419   8.232   1.870   7.563
43138SOL     OW31420   2.203   1.240   6.133
43138SOL    HW131421   2.161   1.200   6.209
43138SOL    HW231422   2.141   1.307   6.104
43139SOL     OW31423   4.578   7.636   4.722
43139SOL    HW131424   4.503   7.625   4.781
43139SOL    HW231425   4.633   7.559   4.738
43140SOL     OW31426   0.225   8.261   3.901
43140SOL    HW131427   0.320   8.254   3.900
43140SOL    HW231428   0.197   8.212   3.823
43141SOL     OW31429   7.469   2.547   0.927
43141SOL    HW131430   7.482   2.639   0.906
43141SOL    HW231431   7.399   2.519   0.868
43142SOL     OW31432   5.687   7.858   4.564
43142SOL    HW131433   5.600   7.848   4.602
43142SOL    HW231434   5.680   7.818   4.477
43143SOL     OW31435   2.191   0.194   2.280
43143SOL    HW131436   2.133   0.170   2.207
43143SOL    HW231437   2.279   0.180   2.245
43144SOL     OW31438   9.644   6.270   0.402
43144SOL    HW131439   9.729   6.240   0.370
43144SOL    HW231440   9.665   6.324   0.478
43145SOL     OW31441   2.554   7.421   5.024
43145SOL    HW131442   2.562   7.340   4.973
43145SOL    HW231443   2.520   7.393   5.109
43146SOL     OW31444   0.974   5.577   9.750
43146SOL    HW131445   0.884   5.609   9.749
43146SOL    HW231446   0.973   5.500   9.693
43147SOL     OW31447   1.968   4.602   2.076
43147SOL    HW131448   2.004   4.524   2.119
43147SOL    HW231449   2.009   4.602   1.989
43148SOL     OW31450   0.069   0.276   7.197
43148SOL    HW131451   0.029   0.340   7.138
43148SOL    HW231452   0.163   0.288   7.186
43149SOL     OW31453   0.254  10.570   9.531
43149SOL    HW131454   0.330  10.537   9.484
43149SOL    HW231455   0.252  10.520   9.612
43150SOL     OW31456   2.870   0.629  10.054
43150SOL    HW131457   2.837   0.599   9.969
43150SOL    HW231458   2.875   0.724  10.045
43151SOL     OW31459   4.832   1.173   9.460
43151SOL    HW131460   4.769   1.145   9.526
43151SOL    HW231461   4.861   1.259   9.489
43152SOL     OW31462   0.463   2.288  10.208
43152SOL    HW131463   0.505   2.374  10.208
43152SOL    HW231464   0.536   2.226  10.211
43153SOL     OW31465   9.363   6.170   9.490
43153SOL    HW131466   9.368   6.166   9.585
43153SOL    HW231467   9.434   6.229   9.465
43154SOL     OW31468   9.928   7.708   9.272
43154SOL    HW131469   9.922   7.711   9.367
43154SOL    HW231470   9.948   7.798   9.246
43155SOL     OW31471   6.574   1.782   3.889
43155SOL    HW131472   6.600   1.835   3.813
43155SOL    HW231473   6.655   1.738   3.916
43156SOL     OW31474   8.117   1.386   0.434
43156SOL    HW131475   8.138   1.352   0.521
43156SOL    HW231476   8.084   1.474   0.449
43157SOL     OW31477   8.941   1.407   5.124
43157SOL    HW131478   8.995   1.485   5.109
43157SOL    HW231479   9.002   1.342   5.160
43158SOL     OW31480   3.460   8.829   0.245
43158SOL    HW131481   3.495   8.835   0.156
43158SOL    HW231482   3.401   8.904   0.253
43159SOL     OW31483   5.549   0.292   6.933
43159SOL    HW131484   5.586   0.230   6.870
43159SOL    HW231485   5.474   0.246   6.970
43160SOL     OW31486   8.299   0.438  10.531
43160SOL    HW131487   8.244   0.447  10.453
43160SOL    HW231488   8.302   0.525  10.569
43161SOL     OW31489   0.821   6.262   0.657
43161SOL    HW131490   0.845   6.307   0.576
43161SOL    HW231491   0.727   6.246   0.648
43162SOL     OW31492   6.774   7.040   8.404
43162SOL    HW131493   6.683   7.035   8.433
43162SOL    HW231494   6.775   7.112   8.341
43163SOL     OW31495  10.470  10.679   4.985
43163SOL    HW131496  10.526  10.699   4.910
43163SOL    HW231497  10.507  10.599   5.022
43164SOL     OW31498   2.516   9.603   1.020
43164SOL    HW131499   2.529   9.647   0.936
43164SOL    HW231500   2.542   9.667   1.085
43165SOL     OW31501   2.722   0.685   8.156
43165SOL    HW131502   2.634   0.721   8.145
43165SOL    HW231503   2.749   0.713   8.243
43166SOL     OW31504   2.030  10.666   3.437
43166SOL    HW131505   2.039  10.760   3.451
43166SOL    HW231506   1.936  10.649   3.445
43167SOL     OW31507   5.127   2.574   4.215
43167SOL    HW131508   5.133   2.533   4.301
43167SOL    HW231509   5.217   2.598   4.193
43168SOL     OW31510   9.481   5.632   6.300
43168SOL    HW131511   9.402   5.595   6.260
43168SOL    HW231512   9.448   5.691   6.368
43169SOL     OW31513   8.266   2.674   2.958
43169SOL    HW131514   8.172   2.658   2.950
43169SOL    HW231515   8.302   2.649   2.873
43170SOL     OW31516  10.413  10.357   2.763
43170SOL    HW131517  10.359  10.316   2.830
43170SOL    HW231518  10.430  10.287   2.700
43171SOL     OW31519   0.106   8.876  11.025
43171SOL    HW131520   0.095   8.947  10.962
43171SOL    HW231521   0.062   8.801  10.984
43172SOL     OW31522   8.140   7.085  10.379
43172SOL    HW131523   8.177   7.025  10.443
43172SOL    HW231524   8.069   7.035  10.338
43173SOL     OW31525   1.918   7.062   3.367
43173SOL    HW131526   1.978   6.987   3.364
43173SOL    HW231527   1.959   7.122   3.428
43174SOL     OW31528  10.806   1.114   7.526
43174SOL    HW131529  10.721   1.084   7.558
43174SOL    HW231530  10.807   1.208   7.544
43175SOL     OW31531  10.139   0.636  10.003
43175SOL    HW131532  10.145   0.665  10.094
43175SOL    HW231533  10.046   0.640   9.982
43176SOL     OW31534   0.946   8.891   8.963
43176SOL    HW131535   1.033   8.899   9.003
43176SOL    HW231536   0.918   8.801   8.983
43177SOL     OW31537   6.588   9.512   8.057
43177SOL    HW131538   6.556   9.541   7.971
43177SOL    HW231539   6.677   9.546   8.062
43178SOL     OW31540   7.692   7.966   4.422
43178SOL    HW131541   7.740   8.022   4.482
43178SOL    HW231542   7.708   8.004   4.335
43179SOL     OW31543   3.919   8.079   7.256
43179SOL    HW131544   3.903   8.057   7.164
43179SOL    HW231545   3.836   8.114   7.287
43180SOL     OW31546   9.513   1.339   1.702
43180SOL    HW131547   9.542   1.247   1.704
43180SOL    HW231548   9.542   1.375   1.786
43181SOL     OW31549   9.300   8.123   8.239
43181SOL    HW131550   9.375   8.176   8.211
43181SOL    HW231551   9.299   8.131   8.334
43182SOL     OW31552   0.285   2.810   1.489
43182SOL    HW131553   0.275   2.905   1.487
43182SOL    HW231554   0.199   2.776   1.464
43183SOL     OW31555   5.081   7.606   6.945
43183SOL    HW131556   5.024   7.544   6.900
43183SOL    HW231557   5.105   7.561   7.026
43184SOL     OW31558   9.409   3.366   3.079
43184SOL    HW131559   9.388   3.451   3.117
43184SOL    HW231560   9.449   3.386   2.994
43185SOL     OW31561   4.333   6.166  10.752
43185SOL    HW131562   4.291   6.197  10.832
43185SOL    HW231563   4.261   6.152  10.690
43186SOL     OW31564   9.361   4.882   2.196
43186SOL    HW131565   9.320   4.802   2.161
43186SOL    HW231566   9.288   4.933   2.231
43187SOL     OW31567   2.319  10.736   2.328
43187SOL    HW131568   2.285  10.693   2.406
43187SOL    HW231569   2.273  10.820   2.324
43188SOL     OW31570   4.799   3.430   9.862
43188SOL    HW131571   4.796   3.359   9.927
43188SOL    HW231572   4.883   3.473   9.877
43189SOL     OW31573   4.798   5.299  10.942
43189SOL    HW131574   4.734   5.243  10.897
43189SOL    HW231575   4.809   5.258  11.028
43190SOL     OW31576   9.750  10.570   2.572
43190SOL    HW131577   9.776  10.504   2.508
43190SOL    HW231578   9.756  10.653   2.524
43191SOL     OW31579   1.497   7.586   5.539
43191SOL    HW131580   1.481   7.503   5.494
43191SOL    HW231581   1.527   7.560   5.626
43192SOL     OW31582   7.320  10.829   2.564
43192SOL    HW131583   7.269  10.790   2.493
43192SOL    HW231584   7.400  10.777   2.567
43193SOL     OW31585   8.500   0.050  10.494
43193SOL    HW131586   8.520   0.143  10.483
43193SOL    HW231587   8.473   0.021  10.406
43194SOL     OW31588   8.044   2.457   7.573
43194SOL    HW131589   7.951   2.477   7.565
43194SOL    HW231590   8.088   2.527   7.525
43195SOL     OW31591   0.745   8.065   3.300
43195SOL    HW131592   0.654   8.095   3.298
43195SOL    HW231593   0.792   8.134   3.345
43196SOL     OW31594   2.297   3.020  10.485
43196SOL    HW131595   2.242   3.034  10.561
43196SOL    HW231596   2.240   3.039  10.410
43197SOL     OW31597   9.630  10.048   7.896
43197SOL    HW131598   9.657  10.056   7.804
43197SOL    HW231599   9.552   9.992   7.893
43198SOL     OW31600   5.474   5.067   1.934
43198SOL    HW131601   5.388   5.104   1.949
43198SOL    HW231602   5.497   5.095   1.845
43199SOL     OW31603   7.994   9.561   3.495
43199SOL    HW131604   8.021   9.482   3.448
43199SOL    HW231605   8.076   9.599   3.527
43200SOL     OW31606  10.606   7.024   1.481
43200SOL    HW131607  10.662   7.059   1.550
43200SOL    HW231608  10.668   6.984   1.419
43201SOL     OW31609  10.093   8.796   2.092
43201SOL    HW131610  10.186   8.779   2.078
43201SOL    HW231611  10.053   8.781   2.006
43202SOL     OW31612  10.386   4.721   2.922
43202SOL    HW131613  10.411   4.813   2.924
43202SOL    HW231614  10.308   4.716   2.977
43203SOL     OW31615   8.519   2.516  10.913
43203SOL    HW131616   8.562   2.547  10.993
43203SOL    HW231617   8.426   2.524  10.931
43204SOL     OW31618   0.332  10.441  10.972
43204SOL    HW131619   0.395  10.426  10.901
43204SOL    HW231620   0.373  10.404  11.049
43205SOL     OW31621   3.510   7.455   1.869
43205SOL    HW131622   3.528   7.440   1.962
43205SOL    HW231623   3.458   7.535   1.866
43206SOL     OW31624   6.139  10.567   7.413
43206SOL    HW131625   6.143  10.541   7.321
43206SOL    HW231626   6.228  10.595   7.434
43207SOL     OW31627   5.492   0.393   9.137
43207SOL    HW131628   5.463   0.315   9.088
43207SOL    HW231629   5.535   0.447   9.071
43208SOL     OW31630   0.115   4.728   0.373
43208SOL    HW131631   0.121   4.823   0.382
43208SOL    HW231632   0.039   4.714   0.315
43209SOL     OW31633   3.016  10.357   2.357
43209SOL    HW131634   2.939  10.306   2.331
43209SOL    HW231635   3.071  10.294   2.404
43210SOL     OW31636   3.647   8.401   8.110
43210SOL    HW131637   3.687   8.369   8.028
43210SOL    HW231638   3.560   8.360   8.111
43211SOL     OW31639   7.942   7.654   8.679
43211SOL    HW131640   8.031   7.625   8.697
43211SOL    HW231641   7.936   7.656   8.583
43212SOL     OW31642   7.624   7.967   8.718
43212SOL    HW131643   7.601   8.059   8.717
43212SOL    HW231644   7.719   7.966   8.703
43213SOL     OW31645   1.410   2.319  11.010
43213SOL    HW131646   1.346   2.388  11.026
43213SOL    HW231647   1.359   2.238  11.011
43214SOL     OW31648   9.434   1.692   3.035
43214SOL    HW131649   9.369   1.757   3.063
43214SOL    HW231650   9.387   1.608   3.038
43215SOL     OW31651   9.978   1.403   0.214
43215SOL    HW131652  10.059   1.352   0.219
43215SOL    HW231653   9.966   1.438   0.302
43216SOL     OW31654   9.555   1.020   2.726
43216SOL    HW131655   9.462   1.032   2.707
43216SOL    HW231656   9.570   0.926   2.715
43217SOL     OW31657   9.651   5.961   5.349
43217SOL    HW131658   9.740   5.978   5.381
43217SOL    HW231659   9.628   5.876   5.386
43218SOL     OW31660   5.430   9.583   8.230
43218SOL    HW131661   5.346   9.622   8.254
43218SOL    HW231662   5.449   9.618   8.143
43219SOL     OW31663   1.513   2.045   9.960
43219SOL    HW131664   1.508   2.074  10.051
43219SOL    HW231665   1.602   2.010   9.950
43220SOL     OW31666  10.800   1.247   5.838
43220SOL    HW131667  10.816   1.267   5.930
43220SOL    HW231668  10.709   1.273   5.823
43221SOL     OW31669   1.802   9.726   5.611
43221SOL    HW131670   1.724   9.715   5.665
43221SOL    HW231671   1.852   9.795   5.654
43222SOL     OW31672   7.864   0.722  10.056
43222SOL    HW131673   7.931   0.774  10.100
43222SOL    HW231674   7.882   0.632  10.083
43223SOL     OW31675   7.902   0.493   8.960
43223SOL    HW131676   7.831   0.556   8.948
43223SOL    HW231677   7.897   0.468   9.052
43224SOL     OW31678   8.621   8.979   5.777
43224SOL    HW131679   8.629   8.902   5.721
43224SOL    HW231680   8.693   9.036   5.750
43225SOL     OW31681   3.529   5.323   3.175
43225SOL    HW131682   3.436   5.315   3.194
43225SOL    HW231683   3.569   5.249   3.221
43226SOL     OW31684   0.804   4.670   1.491
43226SOL    HW131685   0.867   4.655   1.561
43226SOL    HW231686   0.725   4.623   1.519
43227SOL     OW31687   4.882   9.467   7.396
43227SOL    HW131688   4.853   9.471   7.487
43227SOL    HW231689   4.840   9.388   7.361
43228SOL     OW31690  10.139   8.451   7.265
43228SOL    HW131691  10.128   8.412   7.178
43228SOL    HW231692  10.232   8.440   7.284
43229SOL     OW31693   1.706   8.767   5.800
43229SOL    HW131694   1.738   8.780   5.710
43229SOL    HW231695   1.611   8.777   5.793
43230SOL     OW31696   8.235   6.978   4.116
43230SOL    HW131697   8.172   6.931   4.061
43230SOL    HW231698   8.307   6.916   4.127
43231SOL     OW31699   1.842  10.025   0.645
43231SOL    HW131700   1.883   9.984   0.568
43231SOL    HW231701   1.750  10.033   0.621
43232SOL     OW31702   0.750   7.567   0.195
43232SOL    HW131703   0.659   7.544   0.212
43232SOL    HW231704   0.754   7.581   0.101
43233SOL     OW31705   4.643   6.361   0.225
43233SOL    HW131706   4.648   6.302   0.300
43233SOL    HW231707   4.662   6.305   0.149
43234SOL     OW31708   3.640   6.865   8.933
43234SOL    HW131709   3.557   6.824   8.957
43234SOL    HW231710   3.692   6.793   8.898
43235SOL     OW31711   1.939   6.449   0.177
43235SOL    HW131712   2.026   6.445   0.217
43235SOL    HW231713   1.955   6.442   0.083
43236SOL     OW31714  10.260   5.396   8.736
43236SOL    HW131715  10.249   5.490   8.725
43236SOL    HW231716  10.172   5.364   8.757
43237SOL     OW31717   8.256   1.763  10.932
43237SOL    HW131718   8.310   1.799  11.002
43237SOL    HW231719   8.175   1.737  10.975
43238SOL     OW31720  10.437   3.050   9.033
43238SOL    HW131721  10.456   3.128   8.981
43238SOL    HW231722  10.491   2.981   8.993
43239SOL     OW31723   0.891   4.463   0.304
43239SOL    HW131724   0.817   4.428   0.254
43239SOL    HW231725   0.852   4.529   0.361
43240SOL     OW31726   9.055   8.621   8.207
43240SOL    HW131727   9.126   8.574   8.250
43240SOL    HW231728   9.056   8.588   8.117
43241SOL     OW31729   2.594  10.594   7.440
43241SOL    HW131730   2.668  10.553   7.395
43241SOL    HW231731   2.530  10.523   7.451
43242SOL     OW31732   8.215   1.590   8.762
43242SOL    HW131733   8.297   1.638   8.747
43242SOL    HW231734   8.203   1.538   8.682
43243SOL     OW31735   7.801   6.065   5.165
43243SOL    HW131736   7.767   6.145   5.205
43243SOL    HW231737   7.790   5.997   5.232
43244SOL     OW31738   0.843   9.143   6.671
43244SOL    HW131739   0.850   9.226   6.624
43244SOL    HW231740   0.772   9.156   6.734
43245SOL     OW31741   1.513   7.307   8.079
43245SOL    HW131742   1.534   7.393   8.113
43245SOL    HW231743   1.596   7.274   8.044
43246SOL     OW31744   6.903  10.644   3.110
43246SOL    HW131745   6.985  10.684   3.138
43246SOL    HW231746   6.930  10.565   3.063
43247SOL     OW31747  10.129   9.872  10.138
43247SOL    HW131748  10.112   9.938  10.071
43247SOL    HW231749  10.186   9.808  10.095
43248SOL     OW31750  10.287   6.634   0.996
43248SOL    HW131751  10.208   6.684   1.015
43248SOL    HW231752  10.351   6.700   0.969
43249SOL     OW31753   7.963  10.624   7.719
43249SOL    HW131754   8.002  10.710   7.703
43249SOL    HW231755   7.873  10.633   7.687
43250SOL     OW31756   7.951   0.413  11.103
43250SOL    HW131757   8.012   0.402  11.030
43250SOL    HW231758   7.864   0.402  11.064
43251SOL     OW31759   8.419   0.578   2.319
43251SOL    HW131760   8.403   0.485   2.304
43251SOL    HW231761   8.507   0.581   2.357
43252SOL     OW31762   6.834   0.423   9.739
43252SOL    HW131763   6.833   0.518   9.747
43252SOL    HW231764   6.894   0.393   9.807
43253SOL     OW31765  10.872   5.745   3.635
43253SOL    HW131766  10.964   5.761   3.654
43253SOL    HW231767  10.827   5.762   3.717
43254SOL     OW31768   5.638   1.677   9.107
43254SOL    HW131769   5.614   1.592   9.145
43254SOL    HW231770   5.568   1.736   9.133
43255SOL     OW31771   4.560   4.480   6.756
43255SOL    HW131772   4.501   4.406   6.743
43255SOL    HW231773   4.647   4.440   6.759
43256SOL     OW31774   4.855  10.853   9.638
43256SOL    HW131775   4.929  10.827   9.582
43256SOL    HW231776   4.869  10.946   9.654
43257SOL     OW31777   2.317   9.782   5.267
43257SOL    HW131778   2.240   9.748   5.221
43257SOL    HW231779   2.373   9.705   5.280
43258SOL     OW31780   5.232   3.910   2.375
43258SOL    HW131781   5.273   3.839   2.424
43258SOL    HW231782   5.273   3.989   2.409
43259SOL     OW31783   2.557   8.277   3.648
43259SOL    HW131784   2.580   8.205   3.707
43259SOL    HW231785   2.559   8.355   3.702
43260SOL     OW31786  10.749   2.275   1.007
43260SOL    HW131787  10.838   2.304   1.026
43260SOL    HW231788  10.729   2.312   0.921
43261SOL     OW31789   2.875   0.022   8.290
43261SOL    HW131790   2.838  -0.066   8.295
43261SOL    HW231791   2.970   0.008   8.284
43262SOL     OW31792   2.464   7.001   2.143
43262SOL    HW131793   2.489   6.909   2.157
43262SOL    HW231794   2.404   6.998   2.068
43263SOL     OW31795   0.475   9.776   9.953
43263SOL    HW131796   0.516   9.862   9.949
43263SOL    HW231797   0.385   9.790   9.925
43264SOL     OW31798   9.721   0.243   0.948
43264SOL    HW131799   9.701   0.226   0.856
43264SOL    HW231800   9.805   0.288   0.946
43265SOL     OW31801   9.580   0.426   3.783
43265SOL    HW131802   9.528   0.505   3.798
43265SOL    HW231803   9.525   0.354   3.815
43266SOL     OW31804   4.785   9.331   0.381
43266SOL    HW131805   4.767   9.243   0.346
43266SOL    HW231806   4.710   9.383   0.354
43267SOL     OW31807   9.269   8.008   9.941
43267SOL    HW131808   9.278   7.981   9.849
43267SOL    HW231809   9.344   8.065   9.957
43268SOL     OW31810   2.448   3.055   2.428
43268SOL    HW131811   2.420   2.979   2.377
43268SOL    HW231812   2.389   3.057   2.503
43269SOL     OW31813  10.616   9.628   3.683
43269SOL    HW131814  10.579   9.595   3.765
43269SOL    HW231815  10.687   9.566   3.662
43270SOL     OW31816   6.364   1.870  10.131
43270SOL    HW131817   6.296   1.828  10.078
43270SOL    HW231818   6.405   1.932  10.071
43271SOL     OW31819   1.942   5.877   0.588
43271SOL    HW131820   2.008   5.928   0.634
43271SOL    HW231821   1.928   5.800   0.643
43272SOL     OW31822   7.341   0.899   7.122
43272SOL    HW131823   7.275   0.958   7.086
43272SOL    HW231824   7.423   0.947   7.116
43273SOL     OW31825   1.399   5.179  10.846
43273SOL    HW131826   1.316   5.203  10.806
43273SOL    HW231827   1.407   5.237  10.921
43274SOL     OW31828   1.291  10.417   1.663
43274SOL    HW131829   1.282  10.331   1.621
43274SOL    HW231830   1.384  10.422   1.687
43275SOL     OW31831   3.229   9.435   8.643
43275SOL    HW131832   3.206   9.470   8.729
43275SOL    HW231833   3.321   9.459   8.631
43276SOL     OW31834   2.016   0.432   4.670
43276SOL    HW131835   2.009   0.380   4.590
43276SOL    HW231836   2.090   0.490   4.654
43277SOL     OW31837   9.446   4.962  10.842
43277SOL    HW131838   9.458   4.913  10.923
43277SOL    HW231839   9.441   5.053  10.869
43278SOL     OW31840   9.264   2.324  10.001
43278SOL    HW131841   9.271   2.290  10.090
43278SOL    HW231842   9.338   2.284   9.954
43279SOL     OW31843   2.421   3.696   1.359
43279SOL    HW131844   2.344   3.716   1.412
43279SOL    HW231845   2.387   3.642   1.287
43280SOL     OW31846   7.442   2.466   4.945
43280SOL    HW131847   7.514   2.496   4.889
43280SOL    HW231848   7.368   2.456   4.885
43281SOL     OW31849  10.493  10.646   2.341
43281SOL    HW131850  10.517  10.732   2.306
43281SOL    HW231851  10.530  10.584   2.278
43282SOL     OW31852   9.753   2.467  10.747
43282SOL    HW131853   9.843   2.457  10.716
43282SOL    HW231854   9.713   2.527  10.684
43283SOL     OW31855   2.750   0.120   8.990
43283SOL    HW131856   2.836   0.140   8.953
43283SOL    HW231857   2.730   0.032   8.957
43284SOL     OW31858   1.609   2.735   8.252
43284SOL    HW131859   1.686   2.678   8.247
43284SOL    HW231860   1.624   2.801   8.184
43285SOL     OW31861  10.609   1.662   8.681
43285SOL    HW131862  10.571   1.604   8.615
43285SOL    HW231863  10.663   1.604   8.735
43286SOL     OW31864  10.939   0.105   3.920
43286SOL    HW131865  10.916   0.154   3.998
43286SOL    HW231866  11.011   0.154   3.881
43287SOL     OW31867   7.780   7.407   5.308
43287SOL    HW131868   7.753   7.315   5.316
43287SOL    HW231869   7.698   7.455   5.295
43288SOL     OW31870   8.243   1.038   8.970
43288SOL    HW131871   8.200   1.085   8.898
43288SOL    HW231872   8.219   0.946   8.956
43289SOL     OW31873   1.997   7.753   1.369
43289SOL    HW131874   1.931   7.747   1.438
43289SOL    HW231875   2.076   7.717   1.409
43290SOL     OW31876   5.321   8.557   3.933
43290SOL    HW131877   5.386   8.589   3.996
43290SOL    HW231878   5.361   8.478   3.896
43291SOL     OW31879   8.477   0.548   7.385
43291SOL    HW131880   8.546   0.600   7.343
43291SOL    HW231881   8.441   0.495   7.314
43292SOL     OW31882   2.201   0.573   5.902
43292SOL    HW131883   2.259   0.649   5.894
43292SOL    HW231884   2.209   0.528   5.818
43293SOL     OW31885   0.115   1.005   9.713
43293SOL    HW131886   0.202   0.978   9.740
43293SOL    HW231887   0.077   1.047   9.790
43294SOL     OW31888   9.925   6.071   1.399
43294SOL    HW131889   9.887   6.000   1.347
43294SOL    HW231890   9.907   6.150   1.348
43295SOL     OW31891   0.922   0.339   8.065
43295SOL    HW131892   0.873   0.384   7.996
43295SOL    HW231893   0.980   0.406   8.101
43296SOL     OW31894   8.758   0.326  10.724
43296SOL    HW131895   8.667   0.303  10.706
43296SOL    HW231896   8.778   0.281  10.806
43297SOL     OW31897   4.644  10.723   2.396
43297SOL    HW131898   4.682  10.652   2.344
43297SOL    HW231899   4.603  10.781   2.331
43298SOL     OW31900   1.522   8.205   7.802
43298SOL    HW131901   1.615   8.222   7.786
43298SOL    HW231902   1.478   8.235   7.722
43299SOL     OW31903   9.870   7.294   0.939
43299SOL    HW131904   9.922   7.214   0.937
43299SOL    HW231905   9.914   7.352   0.877
43300SOL     OW31906   5.227   1.319  11.043
43300SOL    HW131907   5.170   1.395  11.036
43300SOL    HW231908   5.169   1.247  11.067
43301SOL     OW31909  10.238   9.197   8.508
43301SOL    HW131910  10.174   9.136   8.545
43301SOL    HW231911  10.209   9.283   8.538
43302SOL     OW31912   1.908  10.042  10.475
43302SOL    HW131913   1.847  10.001  10.536
43302SOL    HW231914   1.987  10.058  10.526
43303SOL     OW31915   2.883  10.606   1.362
43303SOL    HW131916   2.921  10.518   1.366
43303SOL    HW231917   2.945  10.657   1.310
43304SOL     OW31918   3.177  10.072   7.853
43304SOL    HW131919   3.155  10.087   7.761
43304SOL    HW231920   3.106  10.017   7.886
43305SOL     OW31921   8.659   0.603   6.944
43305SOL    HW131922   8.729   0.564   6.891
43305SOL    HW231923   8.626   0.675   6.890
43306SOL     OW31924   1.794   7.231  10.852
43306SOL    HW131925   1.780   7.325  10.852
43306SOL    HW231926   1.709   7.194  10.829
43307SOL     OW31927  10.655   6.952   7.181
43307SOL    HW131928  10.673   7.010   7.107
43307SOL    HW231929  10.567   6.975   7.209
43308SOL     OW31930   3.651   1.004   1.522
43308SOL    HW131931   3.562   0.990   1.491
43308SOL    HW231932   3.705   0.993   1.444
43309SOL     OW31933   7.992   2.239   2.837
43309SOL    HW131934   7.919   2.248   2.898
43309SOL    HW231935   8.070   2.256   2.890
43310NA      NA31936   0.183   2.170   4.251
43311NA      NA31937  11.100   2.870   6.047
43312NA      NA31938   2.328   9.212   5.188
43313NA      NA31939   8.642   2.132   9.927
43314NA      NA31940   8.319   2.744   3.184
43315NA      NA31941   9.006   2.818   4.765
43316NA      NA31942   0.338   1.149   0.365
43317NA      NA31943   0.600   3.931   2.219
43318NA      NA31944   2.669   3.138   2.355
43319NA      NA31945   4.640   3.932   2.613
43320NA      NA31946   0.686   6.925   2.726
43321NA      NA31947   7.101   5.301   7.938
43322NA      NA31948   3.527   5.189  10.862
43323NA      NA31949   3.648   6.578   6.524
43324NA      NA31950   2.435   7.733   5.437
43325NA      NA31951   2.834   3.202   0.871
43326NA      NA31952   5.123   8.315   4.272
43327NA      NA31953   1.022   6.611   1.092
43328NA      NA31954   2.368   8.969   9.996
43329NA      NA31955   9.032   5.697   7.323
43330NA      NA31956  11.058   5.910   0.131
43331NA      NA31957   2.596   8.215   3.425
43332NA      NA31958   0.749   7.957   5.240
43333NA      NA31959   7.464   4.403   0.989
43334NA      NA31960   1.957   9.529   8.499
43335NA      NA31961   2.928   7.444   7.946
43336NA      NA31962   2.932   6.553   7.482
43337NA      NA31963  10.122   8.612   9.371
43338NA      NA31964   4.874   0.177  10.414
43339NA      NA31965   4.770   5.515   0.856
43340NA      NA31966   3.095   9.366  10.959
43341NA      NA31967   2.726   8.188   6.846
43342NA      NA31968   2.542   0.521   9.074
43343NA      NA31969   9.948   7.862   0.442
43344NA      NA31970   6.946   0.550   1.844
43345NA      NA31971   9.552   0.950   1.841
43346NA      NA31972   2.705   2.271   1.991
43347NA      NA31973  10.800  10.001   4.180
43348NA      NA31974   1.216   4.019   4.628
43349NA      NA31975   3.387   0.576   6.018
43350NA      NA31976   0.681   0.222   4.096
43351NA      NA31977   3.412   8.077   4.882
43352NA      NA31978   2.512   1.669   7.670
43353NA      NA31979   3.970   2.490  10.333
43354NA      NA31980   4.973   0.651   6.783
43355NA      NA31981   1.610   0.943   5.360
43356NA      NA31982   0.686   1.972   2.027
43357NA      NA31983   3.555  10.175   8.895
43358NA      NA31984   1.804   2.568   1.852
43359NA      NA31985   4.501   6.620   5.803
43360NA      NA31986   4.983   5.486   6.071
43361NA      NA31987   5.185   4.499   7.082
43362NA      NA31988   1.668  10.405   6.836
43363NA      NA31989   3.128   1.730   1.414
43364NA      NA31990   2.802   3.929   8.469
43365NA      NA31991   5.521   4.005   6.585
43366NA      NA31992   2.318   4.382   9.156
43367NA      NA31993  10.245   6.147   4.153
43368NA      NA31994  10.551   6.661   3.344
43369NA      NA31995   2.838   6.967  10.763
43370NA      NA31996   2.096   8.681   1.785
43371NA      NA31997   0.893   6.116   8.480
43372NA      NA31998   3.403   0.122   0.646
43373NA      NA31999   5.807   1.873   3.327
43374NA      NA32000   8.246  10.720   4.947
43375NA      NA32001   4.179   8.838   7.545
43376NA      NA32002   3.212   7.227   6.660
43377NA      NA32003   7.420   2.903   3.811
43378NA      NA32004   4.115   4.437   4.723
43379NA      NA32005   5.286   2.705   3.680
43380NA      NA32006   6.485   3.542   4.688
43381NA      NA32007   6.012   4.406   6.443
43382NA      NA32008   4.851   3.547   6.327
43383NA      NA32009   6.929   3.353   6.834
43384NA      NA32010   2.259   9.256   2.500
43385NA      NA32011   5.408   4.384   0.372
43386NA      NA32012   5.544   4.367   5.600
43387NA      NA32013   5.483   4.714   9.316
43388NA      NA32014   4.665   4.270   7.251
43389NA      NA32015   5.977   4.222   5.893
43390NA      NA32016   5.933   4.459   4.989
43391NA      NA32017   6.325   7.036   3.196
43392NA      NA32018   5.060   6.102   3.369
43393NA      NA32019   3.159   4.738   7.451
43394NA      NA32020   2.196   3.578  10.252
43395NA      NA32021   5.407   7.295   5.489
43396NA      NA32022   5.629   6.000   6.011
43397NA      NA32023   2.951   9.119   9.387
43398NA      NA32024   5.680   6.557   7.337
43399NA      NA32025   7.029  10.107  11.043
43400NA      NA32026   2.813  10.423  10.372
43401NA      NA32027   4.017   1.556   1.303
43402NA      NA32028   5.024   7.295   4.413
43403NA      NA32029   6.176   7.752   6.054
43404NA      NA32030   7.146   7.050   7.644
43405NA      NA32031   9.621   0.956  10.842
43406NA      NA32032   4.412   4.630   6.861
43407NA      NA32033   7.386   2.382   7.364
43408NA      NA32034   7.069   1.691   8.279
43409NA      NA32035   5.318   2.598   7.632
43410NA      NA32036   4.085   3.775   8.641
43411NA      NA32037   7.611   9.665   7.815
43412NA      NA32038   4.960   9.522   2.968
43413NA      NA32039   4.066   3.083   2.853
43414NA      NA32040   4.428   4.395   5.962
43415NA      NA32041   6.469   4.704   5.565
43416NA      NA32042   7.067   3.676   6.039
43417NA      NA32043   4.826   7.105   6.502
43418NA      NA32044   6.981   3.997   1.071
43419NA      NA32045   6.985   7.100   1.393
43420NA      NA32046   6.733   2.874   7.553
43421NA      NA32047   0.593   6.266   8.699
43422NA      NA32048   4.855   6.969   9.934
43423NA      NA32049   7.895   3.968   7.675
43424NA      NA32050   3.036   2.199   5.571
43425NA      NA32051   5.498   6.016   6.357
43426NA      NA32052   7.884   4.984   8.996
43427NA      NA32053   5.673   6.250   8.700
43428NA      NA32054   6.604   4.881   4.314
43429NA      NA32055   7.263   7.932   6.344
43430NA      NA32056   6.543   4.990   4.951
43431NA      NA32057   8.444   9.351   5.127
43432NA      NA32058   6.835   5.523   5.848
43433NA      NA32059   8.026   4.804   4.185
43434NA      NA32060   4.134   0.259   6.715
43435NA      NA32061   6.779   8.709   3.719
43436NA      NA32062   5.663  10.590  10.655
43437NA      NA32063  10.965   0.550  10.844
43438NA      NA32064   5.356   0.360   4.570
43439NA      NA32065   8.234   8.482  10.551
43440NA      NA32066  10.243  10.286   1.202
43441NA      NA32067   5.913   7.825   3.577
43442NA      NA32068   7.079   2.762   1.248
43443NA      NA32069   6.746   8.736   9.005
43444NA      NA32070   5.954   1.607   1.139
43445NA      NA32071   9.256   3.188   3.021
43446NA      NA32072   5.848   9.899  10.174
43447NA      NA32073   7.070   2.329   5.648
43448NA      NA32074   7.127   3.072   6.088
43449NA      NA32075   6.238   1.879   4.091
43450NA      NA32076   0.410   0.069   6.599
43451NA      NA32077   7.919   3.637   3.878
43452NA      NA32078   5.977   0.500   1.152
43453NA      NA32079   7.830   4.207   3.862
43454NA      NA32080   7.224   4.705   4.642
43455NA      NA32081   6.317   3.871   4.275
43456NA      NA32082   8.046   3.092   5.382
43457NA      NA32083   8.739   3.307   4.460
43458NA      NA32084   7.142   2.510   6.461
43459NA      NA32085   7.417   4.520   6.168
43460NA      NA32086   5.454   5.635   7.387
43461NA      NA32087   5.800   3.341   0.227
43462NA      NA32088  10.482   7.942   5.262
43463NA      NA32089   7.354  10.648   3.243
43464NA      NA32090   8.415   9.047   5.848
43465NA      NA32091   9.356   7.450   3.573
43466NA      NA32092   9.305   6.506   3.717
43467NA      NA32093   0.729   4.776   3.557
43468NA      NA32094   7.703   0.166   0.888
43469NA      NA32095   1.655   8.837   6.987
43470NA      NA32096   0.993   7.837   9.435
43471NA      NA32097   8.145   8.652   3.913
43472NA      NA32098  10.510   0.750   2.279
43473NA      NA32099   7.757   8.306   4.790
43474NA      NA32100   1.588   7.896   7.043
43475NA      NA32101   9.927   3.435   0.701
43476NA      NA32102   8.068   4.875   5.462
43477NA      NA32103   9.932   0.736   5.943
43478NA      NA32104   0.384   7.671   6.509
43479NA      NA32105   0.087   4.222   7.597
43480NA      NA32106   8.663   3.723   5.571
43481NA      NA32107   1.729   4.475   1.049
43482NA      NA32108   3.587   4.043   5.629
43483NA      NA32109  10.922   4.092   6.331
43484NA      NA32110   1.057   9.121   4.907
43485NA      NA32111   2.421   2.744   6.494
43486NA      NA32112   0.114   4.528   9.740
43487NA      NA32113  10.492   5.354   8.806
43488NA      NA32114   0.070   6.778  10.401
43489NA      NA32115   7.702   7.497   0.407
43490NA      NA32116   1.203   4.670   7.784
43491NA      NA32117   0.245   8.988   9.146
43492NA      NA32118   8.406   5.229   5.733
43493NA      NA32119   3.810   5.348   6.024
43494NA      NA32120   2.435   7.403   6.567
43495NA      NA32121   6.417   5.819   7.375
43496NA      NA32122   1.114  10.618   9.698
43497NA      NA32123  10.752   6.918   8.947
43498NA      NA32124   7.688   7.869   5.916
43499NA      NA32125   9.155   7.347   1.498
43500NA      NA32126   1.699   9.774   3.298
43501NA      NA32127   3.037   7.024   4.477
43502NA      NA32128   8.415   9.136   6.663
43503NA      NA32129   0.031   2.045   8.136
43504CL      CL32130  10.599   0.216  10.988
43505CL      CL32131   0.201   4.260   3.299
43506CL      CL32132  10.358   9.846   8.196
43507CL      CL32133   4.300   8.878   1.780
43508CL      CL32134   0.712   3.445   1.006
43509CL      CL32135   8.868   2.359   7.380
43510CL      CL32136   4.117   9.913   9.798
43511CL      CL32137   3.986   1.591   0.169
43512CL      CL32138   8.875   3.366  10.780
43513CL      CL32139   8.785   4.479   9.271
43514CL      CL32140  10.816   2.478   7.065
43515CL      CL32141   3.494   7.440   8.465
43516CL      CL32142   3.752   3.890   0.666
43517CL      CL32143   9.237   7.932   3.556
43518CL      CL32144   0.868   2.644   5.354
43519CL      CL32145   6.268   1.787   1.645
43520CL      CL32146   1.320   9.909   9.881
43521CL      CL32147   1.101   7.514   9.487
43522CL      CL32148   2.139   5.111   1.738
43523CL      CL32149   9.480   5.500   5.517
43524CL      CL32150   1.663   7.519  10.909
43525CL      CL32151   3.244   6.185  10.237
43526CL      CL32152   2.875   0.102   3.745
43527CL      CL32153   9.491   9.020   3.911
43528CL      CL32154  10.628   9.449   4.967
43529CL      CL32155   0.005   5.447   9.526
43530CL      CL32156   1.066   5.800   3.196
43531CL      CL32157   4.149   2.149   1.528
43532CL      CL32158   4.008  10.137  10.342
43533CL      CL32159   9.947   8.201   2.548
43534CL      CL32160   1.366   3.845   9.392
43535CL      CL32161   2.135   1.984   5.184
43536CL      CL32162   5.385   0.012   5.156
43537CL      CL32163   3.724   7.840   1.479
43538CL      CL32164   0.649   0.696   6.142
43539CL      CL32165  10.289   7.380   3.745
43540CL      CL32166   7.201   4.692  10.200
43541CL      CL32167   7.535   7.999   0.832
43542CL      CL32168   1.629   1.250   5.808
43543CL      CL32169   2.723   7.639   2.116
43544CL      CL32170   2.527   7.964  10.284
43545CL      CL32171   2.540   8.948  10.455
43546CL      CL32172   2.732   9.157   3.913
43547CL      CL32173   5.694  10.338   2.481
43548CL      CL32174   5.518   7.609   5.316
43549CL      CL32175   1.161  11.068   9.435
43550CL      CL32176   1.588   9.403   8.128
43551CL      CL32177   5.145   9.538   9.041
43552CL      CL32178   1.380   8.802   5.797
43553CL      CL32179   5.063   3.414  10.041
43554CL      CL32180  10.461   9.520   3.947
43555CL      CL32181   3.083   1.047   4.614
43556CL      CL32182   4.118   4.734   0.357
43557CL      CL32183   7.069   8.529   2.185
43558CL      CL32184   2.798   4.353   8.061
43559CL      CL32185   5.133   6.670   9.691
43560CL      CL32186  10.911   6.368  10.569
43561CL      CL32187   1.035   4.882   4.247
43562CL      CL32188   5.047  10.288   5.016
43563CL      CL32189   6.535   2.251   6.532
43564CL      CL32190   9.093   1.253   2.326
43565CL      CL32191   3.639  10.499   0.718
43566CL      CL32192   2.700   0.559   0.995
43567CL      CL32193   2.570   9.191   8.971
43568CL      CL32194   6.330   9.361   7.143
43569CL      CL32195  10.693  10.909   2.028
43570CL      CL32196   0.785   7.081   5.946
43571CL      CL32197   8.832   0.970   9.637
43572CL      CL32198   3.556   5.742   3.643
43573CL      CL32199   7.563  10.816   0.746
43574CL      CL32200   5.347   0.408   1.257
43575CL      CL32201   3.786   5.247   9.840
43576CL      CL32202   0.221   7.301  10.498
43577CL      CL32203   7.340   1.727   7.845
43578CL      CL32204   7.608   7.105   5.285
43579CL      CL32205   8.041   0.529   3.557
43580CL      CL32206   6.734   7.248   2.504
43581CL      CL32207   8.113   0.962  10.456
43582CL      CL32208   7.087   9.744   9.903
43583CL      CL32209   3.868  10.729   8.697
43584CL      CL32210   8.378   9.804   7.863
43585CL      CL32211   8.709  10.252   1.051
43586CL      CL32212   9.310   6.456   4.408
43587CL      CL32213   9.692  10.836   5.533
43588CL      CL32214  10.611   6.656   3.802
43589CL      CL32215  10.595  10.913   7.425
43590CL      CL32216   5.905   3.367   0.780
43591CL      CL32217   8.954   2.843   4.482
43592CL      CL32218   0.822   4.299   2.707
43593CL      CL32219   6.931   8.046   4.134
43594CL      CL32220   0.101   1.245   4.957
43595CL      CL32221   8.582   3.625   2.292
43596CL      CL32222   1.498  11.012   4.603
43597CL      CL32223   4.267   3.968   4.576
43598CL      CL32224   7.674   3.766   3.331
43599CL      CL32225  11.010   7.654   2.322
43600CL      CL32226   7.493   0.116   8.883
43601CL      CL32227   7.295   6.746   0.376
43602CL      CL32228   0.253   5.586   8.442
43603CL      CL32229   6.720   9.319  10.765
43604CL      CL32230   2.829   5.360   0.875
43605CL      CL32231   0.134   9.788   9.315
43606CL      CL32232  10.917   9.408   6.006
43607CL      CL32233   1.316   5.755   7.285
43608CL      CL32234   8.956   8.238   7.945
43609CL      CL32235   7.706  10.018   4.041
43610CL      CL32236   8.204   9.968   8.670
43611CL      CL32237  10.364   1.767   2.592
43612CL      CL32238   5.534   1.639   3.043
43613CL      CL32239   5.449   1.563   8.536
43614CL      CL32240   1.852   1.804   1.418
43615CL      CL32241   4.523   2.593   3.417
43616CL      CL32242   2.865   3.269   5.005
43617CL      CL32243   1.499   4.792   4.528
43618CL      CL32244  10.515   4.005   4.117
43619CL      CL32245   2.375   4.191   8.574
43620CL      CL32246   2.592   4.831   8.631
43621CL      CL32247   1.238   2.548   0.050
43622CL      CL32248   0.262   3.965  10.657
43623CL      CL32249   6.591   6.860   3.949
43624CL      CL32250   9.687   8.350   7.302
43625CL      CL32251   2.584   7.507  10.349
43626CL      CL32252   1.086   6.902  10.821
43627CL      CL32253   8.188   8.382   9.858
  11.10136  11.10136  11.10136
